 Entering Gaussian System, Link 0=g09
 Input=2hc_1_rel-mega_dimer_0_NTO_s1.com
 Output=2hc_1_rel-mega_dimer_0_NTO_s1.log
 Initial command:
 /share/apps/gaussian/g09_D01/g09/l1.exe "/tmp/385918.1.all.q/Gau-19457.inp" -scrdir="/tmp/385918.1.all.q/"
 Default is to use a total of   4 processors:
                                4 via shared-memory
                                1 via Linda
 Entering Link 1 = /share/apps/gaussian/g09_D01/g09/l1.exe PID=     19458.
  
 Copyright (c) 1988,1990,1992,1993,1995,1998,2003,2009,2013,
            Gaussian, Inc.  All Rights Reserved.
  
 This is part of the Gaussian(R) 09 program.  It is based on
 the Gaussian(R) 03 system (copyright 2003, Gaussian, Inc.),
 the Gaussian(R) 98 system (copyright 1998, Gaussian, Inc.),
 the Gaussian(R) 94 system (copyright 1995, Gaussian, Inc.),
 the Gaussian 92(TM) system (copyright 1992, Gaussian, Inc.),
 the Gaussian 90(TM) system (copyright 1990, Gaussian, Inc.),
 the Gaussian 88(TM) system (copyright 1988, Gaussian, Inc.),
 the Gaussian 86(TM) system (copyright 1986, Carnegie Mellon
 University), and the Gaussian 82(TM) system (copyright 1983,
 Carnegie Mellon University). Gaussian is a federally registered
 trademark of Gaussian, Inc.
  
 This software contains proprietary and confidential information,
 including trade secrets, belonging to Gaussian, Inc.
  
 This software is provided under written license and may be
 used, copied, transmitted, or stored only in accord with that
 written license.
  
 The following legend is applicable only to US Government
 contracts under FAR:
  
                    RESTRICTED RIGHTS LEGEND
  
 Use, reproduction and disclosure by the US Government is
 subject to restrictions as set forth in subparagraphs (a)
 and (c) of the Commercial Computer Software - Restricted
 Rights clause in FAR 52.227-19.
  
 Gaussian, Inc.
 340 Quinnipiac St., Bldg. 40, Wallingford CT 06492
  
  
 ---------------------------------------------------------------
 Warning -- This program may not be used in any manner that
 competes with the business of Gaussian, Inc. or will provide
 assistance to any competitor of Gaussian, Inc.  The licensee
 of this program is prohibited from giving any competitor of
 Gaussian, Inc. access to this program.  By using this program,
 the user acknowledges that Gaussian, Inc. is engaged in the
 business of creating and licensing software in the field of
 computational chemistry and represents and warrants to the
 licensee that it is not a competitor of Gaussian, Inc. and that
 it will not use this program in any manner prohibited above.
 ---------------------------------------------------------------
  

 Cite this work as:
 Gaussian 09, Revision D.01,
 M. J. Frisch, G. W. Trucks, H. B. Schlegel, G. E. Scuseria, 
 M. A. Robb, J. R. Cheeseman, G. Scalmani, V. Barone, B. Mennucci, 
 G. A. Petersson, H. Nakatsuji, M. Caricato, X. Li, H. P. Hratchian, 
 A. F. Izmaylov, J. Bloino, G. Zheng, J. L. Sonnenberg, M. Hada, 
 M. Ehara, K. Toyota, R. Fukuda, J. Hasegawa, M. Ishida, T. Nakajima, 
 Y. Honda, O. Kitao, H. Nakai, T. Vreven, J. A. Montgomery, Jr., 
 J. E. Peralta, F. Ogliaro, M. Bearpark, J. J. Heyd, E. Brothers, 
 K. N. Kudin, V. N. Staroverov, T. Keith, R. Kobayashi, J. Normand, 
 K. Raghavachari, A. Rendell, J. C. Burant, S. S. Iyengar, J. Tomasi, 
 M. Cossi, N. Rega, J. M. Millam, M. Klene, J. E. Knox, J. B. Cross, 
 V. Bakken, C. Adamo, J. Jaramillo, R. Gomperts, R. E. Stratmann, 
 O. Yazyev, A. J. Austin, R. Cammi, C. Pomelli, J. W. Ochterski, 
 R. L. Martin, K. Morokuma, V. G. Zakrzewski, G. A. Voth, 
 P. Salvador, J. J. Dannenberg, S. Dapprich, A. D. Daniels, 
 O. Farkas, J. B. Foresman, J. V. Ortiz, J. Cioslowski, 
 and D. J. Fox, Gaussian, Inc., Wallingford CT, 2013.
 
 ******************************************
 Gaussian 09:  ES64L-G09RevD.01 24-Apr-2013
                10-Aug-2018 
 ******************************************
 %chk=2hc_1_rel-mega_dimer_0.chk
 %nproc=2
 Will use up to    2 processors via shared memory.
 %mem=14GB
 ----------------------------------------------------------------------
 #p wb97xd STO-3G td=(nstates=1,read) Pop=NTO Density=(Check,Transition
 =1) geom=allcheck nosymm
 ----------------------------------------------------------------------
 Warning!  Basis set taken from checkpoint file.
 1/29=7,38=1/1;
 2/12=2,15=1,40=1/2;
 3/5=7,6=2,11=9,14=-4,16=1,25=1,30=1,67=1,74=-58,89=1/1,2,8,3;
 4//1;
 6/7=2,8=2,9=2,10=2,11=2,22=-10,29=1,89=1/1;
 8/6=1,10=1,108=1/1;
 9/41=1,42=1,47=1,49=3,70=2/14;
 99/5=2/99;
 Leave Link    1 at Fri Aug 10 23:19:50 2018, MaxMem=  1879048192 cpu:         0.1
 (Enter /share/apps/gaussian/g09_D01/g09/l101.exe)
 Structure from the checkpoint file:  "2hc_1_rel-mega_dimer_0.chk"
 -----
 Title
 -----
 Charge =  0 Multiplicity = 1
 Z-Matrix found in file.
 C,0,-0.045604,-3.212643,-0.673042
 C,0,-1.163557,-4.037551,-0.999057
 H,0,-0.121291,-2.475288,0.121883
 C,0,1.146608,-3.335524,-1.348586
 C,0,-0.997931,-4.974953,-2.055672
 N,0,-2.337452,-3.93316,-0.324579
 C,0,1.320601,-4.270503,-2.399224
 H,0,1.971105,-2.682196,-1.060472
 C,0,0.202155,-5.074774,-2.725295
 H,0,-1.826104,-5.611893,-2.356233
 C,0,-3.451039,-4.817588,-0.638286
 C,0,-2.482782,-2.951131,0.738607
 C,0,2.5213,-4.396929,-3.164451
 H,0,0.299534,-5.792287,-3.54133
 H,0,-3.150286,-5.872565,-0.549647
 H,0,-4.268925,-4.626441,0.063239
 H,0,-3.818958,-4.648925,-1.662177
 H,0,-2.290162,-1.933406,0.365237
 H,0,-3.502453,-2.991283,1.132588
 H,0,-1.783201,-3.152381,1.563457
 C,0,3.704177,-3.730044,-2.976341
 H,0,2.47843,-5.091951,-4.010014
 C,0,4.824246,-3.904072,-3.862622
 H,0,3.810173,-3.042685,-2.139497
 C,0,6.116034,-3.241308,-3.594826
 O,0,4.72679,-4.644034,-4.908669
 C,0,7.196441,-3.444502,-4.505463
 C,0,6.35306,-2.418884,-2.472996
 H,0,6.047681,-4.528914,-5.530262
 C,0,8.44931,-2.862065,-4.256098
 O,0,7.039043,-4.198267,-5.611204
 C,0,7.588797,-1.834009,-2.241935
 H,0,5.552651,-2.221827,-1.761605
 C,0,8.641937,-2.065551,-3.137064
 H,0,9.257308,-3.069135,-4.95777
 H,0,7.737617,-1.196134,-1.371176
 H,0,9.619574,-1.619592,-2.947297
 C,0,-7.196442,-6.840499,4.505462
 C,0,-8.449309,-7.422935,4.256097
 C,0,-6.116034,-7.043692,3.594826
 O,0,-7.039043,-6.086733,5.611203
 C,0,-8.641938,-8.219449,3.137063
 H,0,-9.257309,-7.215866,4.95777
 C,0,-6.35306,-7.866116,2.472996
 C,0,-4.824246,-6.380928,3.862622
 H,0,-6.04768,-5.756085,5.530263
 C,0,-7.588796,-8.45099,2.241936
 H,0,-9.619575,-8.665408,2.947296
 H,0,-5.552651,-8.063173,1.761606
 C,0,-3.704178,-6.554956,2.976342
 O,0,-4.72679,-5.640966,4.908668
 H,0,-7.737618,-9.088866,1.371175
 C,0,-2.5213,-5.888071,3.164452
 H,0,-3.810174,-7.242315,2.139497
 C,0,-1.320601,-6.014497,2.399224
 H,0,-2.47843,-5.193048,4.010013
 C,0,-1.146607,-6.949476,1.348586
 C,0,-0.202155,-5.210226,2.725294
 H,0,-1.971105,-7.602804,1.060473
 C,0,0.045604,-7.072357,0.673042
 C,0,0.99793,-5.310047,2.055673
 H,0,-0.299533,-4.492713,3.54133
 C,0,1.163557,-6.247449,0.999056
 H,0,0.121292,-7.809712,-0.121883
 H,0,1.826104,-4.673106,2.356233
 N,0,2.337452,-6.351839,0.324578
 C,0,2.482783,-7.333867,-0.738608
 C,0,3.451039,-5.467412,0.638287
 H,0,2.290163,-8.351594,-0.365237
 H,0,3.502452,-7.293717,-1.132587
 H,0,1.783202,-7.13262,-1.563458
 H,0,3.150286,-4.412434,0.549647
 H,0,4.268925,-5.658559,-0.063239
 H,0,3.818959,-5.636076,1.662178
 Recover connectivity data from disk.
 NAtoms=     74 NQM=       74 NQMF=       0 NMMI=      0 NMMIF=      0
                NMic=       0 NMicF=      0.
                    Isotopes and Nuclear Properties:
 (Nuclear quadrupole moments (NQMom) in fm**2, nuclear magnetic moments (NMagM)
  in nuclear magnetons)

  Atom         1           2           3           4           5           6           7           8           9          10
 IAtWgt=          12          12           1          12          12          14          12           1          12           1
 AtmWgt=  12.0000000  12.0000000   1.0078250  12.0000000  12.0000000  14.0030740  12.0000000   1.0078250  12.0000000   1.0078250
 NucSpn=           0           0           1           0           0           2           0           1           0           1
 AtZEff=  -3.6000000  -3.6000000  -1.0000000  -3.6000000  -3.6000000  -4.5500000  -3.6000000  -1.0000000  -3.6000000  -1.0000000
 NQMom=    0.0000000   0.0000000   0.0000000   0.0000000   0.0000000   2.0440000   0.0000000   0.0000000   0.0000000   0.0000000
 NMagM=    0.0000000   0.0000000   2.7928460   0.0000000   0.0000000   0.4037610   0.0000000   2.7928460   0.0000000   2.7928460
 AtZNuc=   6.0000000   6.0000000   1.0000000   6.0000000   6.0000000   7.0000000   6.0000000   1.0000000   6.0000000   1.0000000

  Atom        11          12          13          14          15          16          17          18          19          20
 IAtWgt=          12          12          12           1           1           1           1           1           1           1
 AtmWgt=  12.0000000  12.0000000  12.0000000   1.0078250   1.0078250   1.0078250   1.0078250   1.0078250   1.0078250   1.0078250
 NucSpn=           0           0           0           1           1           1           1           1           1           1
 AtZEff=  -3.6000000  -3.6000000  -3.6000000  -1.0000000  -1.0000000  -1.0000000  -1.0000000  -1.0000000  -1.0000000  -1.0000000
 NQMom=    0.0000000   0.0000000   0.0000000   0.0000000   0.0000000   0.0000000   0.0000000   0.0000000   0.0000000   0.0000000
 NMagM=    0.0000000   0.0000000   0.0000000   2.7928460   2.7928460   2.7928460   2.7928460   2.7928460   2.7928460   2.7928460
 AtZNuc=   6.0000000   6.0000000   6.0000000   1.0000000   1.0000000   1.0000000   1.0000000   1.0000000   1.0000000   1.0000000

  Atom        21          22          23          24          25          26          27          28          29          30
 IAtWgt=          12           1          12           1          12          16          12          12           1          12
 AtmWgt=  12.0000000   1.0078250  12.0000000   1.0078250  12.0000000  15.9949146  12.0000000  12.0000000   1.0078250  12.0000000
 NucSpn=           0           1           0           1           0           0           0           0           1           0
 AtZEff=  -3.6000000  -1.0000000  -3.6000000  -1.0000000  -3.6000000  -5.6000000  -3.6000000  -3.6000000  -1.0000000  -3.6000000
 NQMom=    0.0000000   0.0000000   0.0000000   0.0000000   0.0000000   0.0000000   0.0000000   0.0000000   0.0000000   0.0000000
 NMagM=    0.0000000   2.7928460   0.0000000   2.7928460   0.0000000   0.0000000   0.0000000   0.0000000   2.7928460   0.0000000
 AtZNuc=   6.0000000   1.0000000   6.0000000   1.0000000   6.0000000   8.0000000   6.0000000   6.0000000   1.0000000   6.0000000

  Atom        31          32          33          34          35          36          37          38          39          40
 IAtWgt=          16          12           1          12           1           1           1          12          12          12
 AtmWgt=  15.9949146  12.0000000   1.0078250  12.0000000   1.0078250   1.0078250   1.0078250  12.0000000  12.0000000  12.0000000
 NucSpn=           0           0           1           0           1           1           1           0           0           0
 AtZEff=  -5.6000000  -3.6000000  -1.0000000  -3.6000000  -1.0000000  -1.0000000  -1.0000000  -3.6000000  -3.6000000  -3.6000000
 NQMom=    0.0000000   0.0000000   0.0000000   0.0000000   0.0000000   0.0000000   0.0000000   0.0000000   0.0000000   0.0000000
 NMagM=    0.0000000   0.0000000   2.7928460   0.0000000   2.7928460   2.7928460   2.7928460   0.0000000   0.0000000   0.0000000
 AtZNuc=   8.0000000   6.0000000   1.0000000   6.0000000   1.0000000   1.0000000   1.0000000   6.0000000   6.0000000   6.0000000

  Atom        41          42          43          44          45          46          47          48          49          50
 IAtWgt=          16          12           1          12          12           1          12           1           1          12
 AtmWgt=  15.9949146  12.0000000   1.0078250  12.0000000  12.0000000   1.0078250  12.0000000   1.0078250   1.0078250  12.0000000
 NucSpn=           0           0           1           0           0           1           0           1           1           0
 AtZEff=  -5.6000000  -3.6000000  -1.0000000  -3.6000000  -3.6000000  -1.0000000  -3.6000000  -1.0000000  -1.0000000  -3.6000000
 NQMom=    0.0000000   0.0000000   0.0000000   0.0000000   0.0000000   0.0000000   0.0000000   0.0000000   0.0000000   0.0000000
 NMagM=    0.0000000   0.0000000   2.7928460   0.0000000   0.0000000   2.7928460   0.0000000   2.7928460   2.7928460   0.0000000
 AtZNuc=   8.0000000   6.0000000   1.0000000   6.0000000   6.0000000   1.0000000   6.0000000   1.0000000   1.0000000   6.0000000

  Atom        51          52          53          54          55          56          57          58          59          60
 IAtWgt=          16           1          12           1          12           1          12          12           1          12
 AtmWgt=  15.9949146   1.0078250  12.0000000   1.0078250  12.0000000   1.0078250  12.0000000  12.0000000   1.0078250  12.0000000
 NucSpn=           0           1           0           1           0           1           0           0           1           0
 AtZEff=  -5.6000000  -1.0000000  -3.6000000  -1.0000000  -3.6000000  -1.0000000  -3.6000000  -3.6000000  -1.0000000  -3.6000000
 NQMom=    0.0000000   0.0000000   0.0000000   0.0000000   0.0000000   0.0000000   0.0000000   0.0000000   0.0000000   0.0000000
 NMagM=    0.0000000   2.7928460   0.0000000   2.7928460   0.0000000   2.7928460   0.0000000   0.0000000   2.7928460   0.0000000
 AtZNuc=   8.0000000   1.0000000   6.0000000   1.0000000   6.0000000   1.0000000   6.0000000   6.0000000   1.0000000   6.0000000

  Atom        61          62          63          64          65          66          67          68          69          70
 IAtWgt=          12           1          12           1           1          14          12          12           1           1
 AtmWgt=  12.0000000   1.0078250  12.0000000   1.0078250   1.0078250  14.0030740  12.0000000  12.0000000   1.0078250   1.0078250
 NucSpn=           0           1           0           1           1           2           0           0           1           1
 AtZEff=  -3.6000000  -1.0000000  -3.6000000  -1.0000000  -1.0000000  -4.5500000  -3.6000000  -3.6000000  -1.0000000  -1.0000000
 NQMom=    0.0000000   0.0000000   0.0000000   0.0000000   0.0000000   2.0440000   0.0000000   0.0000000   0.0000000   0.0000000
 NMagM=    0.0000000   2.7928460   0.0000000   2.7928460   2.7928460   0.4037610   0.0000000   0.0000000   2.7928460   2.7928460
 AtZNuc=   6.0000000   1.0000000   6.0000000   1.0000000   1.0000000   7.0000000   6.0000000   6.0000000   1.0000000   1.0000000

  Atom        71          72          73          74
 IAtWgt=           1           1           1           1
 AtmWgt=   1.0078250   1.0078250   1.0078250   1.0078250
 NucSpn=           1           1           1           1
 AtZEff=  -1.0000000  -1.0000000  -1.0000000  -1.0000000
 NQMom=    0.0000000   0.0000000   0.0000000   0.0000000
 NMagM=    2.7928460   2.7928460   2.7928460   2.7928460
 AtZNuc=   1.0000000   1.0000000   1.0000000   1.0000000
 Leave Link  101 at Fri Aug 10 23:19:50 2018, MaxMem=  1879048192 cpu:         0.1
 (Enter /share/apps/gaussian/g09_D01/g09/l202.exe)
 Symmetry turned off by external request.
 Stoichiometry    C34H34N2O4
 Framework group  C1[X(C34H34N2O4)]
 Deg. of freedom   216
 Full point group                 C1      NOp   1
                          Input orientation:                          
 ---------------------------------------------------------------------
 Center     Atomic      Atomic             Coordinates (Angstroms)
 Number     Number       Type             X           Y           Z
 ---------------------------------------------------------------------
      1          6           0       -0.045604   -3.212643   -0.673042
      2          6           0       -1.163557   -4.037551   -0.999057
      3          1           0       -0.121291   -2.475288    0.121883
      4          6           0        1.146608   -3.335524   -1.348586
      5          6           0       -0.997931   -4.974953   -2.055672
      6          7           0       -2.337452   -3.933160   -0.324579
      7          6           0        1.320601   -4.270503   -2.399224
      8          1           0        1.971105   -2.682196   -1.060472
      9          6           0        0.202155   -5.074774   -2.725295
     10          1           0       -1.826104   -5.611893   -2.356233
     11          6           0       -3.451039   -4.817588   -0.638286
     12          6           0       -2.482782   -2.951131    0.738607
     13          6           0        2.521300   -4.396929   -3.164451
     14          1           0        0.299534   -5.792287   -3.541330
     15          1           0       -3.150286   -5.872565   -0.549647
     16          1           0       -4.268925   -4.626441    0.063239
     17          1           0       -3.818958   -4.648925   -1.662177
     18          1           0       -2.290162   -1.933406    0.365237
     19          1           0       -3.502453   -2.991283    1.132588
     20          1           0       -1.783201   -3.152381    1.563457
     21          6           0        3.704177   -3.730044   -2.976341
     22          1           0        2.478430   -5.091951   -4.010014
     23          6           0        4.824246   -3.904072   -3.862622
     24          1           0        3.810173   -3.042685   -2.139497
     25          6           0        6.116034   -3.241308   -3.594826
     26          8           0        4.726790   -4.644034   -4.908669
     27          6           0        7.196441   -3.444502   -4.505463
     28          6           0        6.353060   -2.418884   -2.472996
     29          1           0        6.047681   -4.528914   -5.530262
     30          6           0        8.449310   -2.862065   -4.256098
     31          8           0        7.039043   -4.198267   -5.611204
     32          6           0        7.588797   -1.834009   -2.241935
     33          1           0        5.552651   -2.221827   -1.761605
     34          6           0        8.641937   -2.065551   -3.137064
     35          1           0        9.257308   -3.069135   -4.957770
     36          1           0        7.737617   -1.196134   -1.371176
     37          1           0        9.619574   -1.619592   -2.947297
     38          6           0       -7.196442   -6.840499    4.505462
     39          6           0       -8.449309   -7.422935    4.256097
     40          6           0       -6.116034   -7.043692    3.594826
     41          8           0       -7.039043   -6.086733    5.611203
     42          6           0       -8.641938   -8.219449    3.137063
     43          1           0       -9.257309   -7.215866    4.957770
     44          6           0       -6.353060   -7.866116    2.472996
     45          6           0       -4.824246   -6.380928    3.862622
     46          1           0       -6.047680   -5.756085    5.530263
     47          6           0       -7.588796   -8.450990    2.241936
     48          1           0       -9.619575   -8.665408    2.947296
     49          1           0       -5.552651   -8.063173    1.761606
     50          6           0       -3.704178   -6.554956    2.976342
     51          8           0       -4.726790   -5.640966    4.908668
     52          1           0       -7.737618   -9.088866    1.371175
     53          6           0       -2.521300   -5.888071    3.164452
     54          1           0       -3.810174   -7.242315    2.139497
     55          6           0       -1.320601   -6.014497    2.399224
     56          1           0       -2.478430   -5.193048    4.010013
     57          6           0       -1.146607   -6.949476    1.348586
     58          6           0       -0.202155   -5.210226    2.725294
     59          1           0       -1.971105   -7.602804    1.060473
     60          6           0        0.045604   -7.072357    0.673042
     61          6           0        0.997930   -5.310047    2.055673
     62          1           0       -0.299533   -4.492713    3.541330
     63          6           0        1.163557   -6.247449    0.999056
     64          1           0        0.121292   -7.809712   -0.121883
     65          1           0        1.826104   -4.673106    2.356233
     66          7           0        2.337452   -6.351839    0.324578
     67          6           0        2.482783   -7.333867   -0.738608
     68          6           0        3.451039   -5.467412    0.638287
     69          1           0        2.290163   -8.351594   -0.365237
     70          1           0        3.502452   -7.293717   -1.132587
     71          1           0        1.783202   -7.132620   -1.563458
     72          1           0        3.150286   -4.412434    0.549647
     73          1           0        4.268925   -5.658559   -0.063239
     74          1           0        3.818959   -5.636076    1.662178
 ---------------------------------------------------------------------
 Rotational constants (GHZ):      0.2752480      0.0274086      0.0268371
 Leave Link  202 at Fri Aug 10 23:19:50 2018, MaxMem=  1879048192 cpu:         0.0
 (Enter /share/apps/gaussian/g09_D01/g09/l301.exe)
 Basis read from chk: "2hc_1_rel-mega_dimer_0.chk" (5D, 7F)
 No pseudopotential information found on chk file.
   234 basis functions,   702 primitive gaussians,   234 cartesian basis functions
   142 alpha electrons      142 beta electrons
       nuclear repulsion energy      4152.0433499707 Hartrees.
 IExCor= 4639 DFT=T Ex+Corr=wB97XD ExCW=0 ScaHFX=  1.000000
 ScaDFX=  1.000000  1.000000  1.000000  1.000000 ScalE2=  1.000000  1.000000
 IRadAn=      0 IRanWt=     -1 IRanGd=            0 ICorTp=0 IEmpDi=121
  HFx wShort=  0.000000 wLong=  0.200000 cFull=  0.222036 cShort=  0.000000 cLong=  0.777964
  DFx wShort=  0.000000 wLong=  0.200000 cFull=  0.000000 cShort=  0.000000 cLong=  1.000000
 NAtoms=   74 NActive=   74 NUniq=   74 SFac= 1.00D+00 NAtFMM=   60 NAOKFM=T Big=T
 Integral buffers will be    131072 words long.
 Raffenetti 1 integral format.
 Two-electron integral symmetry is turned off.
 R6Disp:  Grimme-D2 Dispersion energy=       -0.0646965894 Hartrees.
 Nuclear repulsion after empirical dispersion term =     4151.9786533813 Hartrees.
 No density basis found on file 20724.
 Leave Link  301 at Fri Aug 10 23:19:50 2018, MaxMem=  1879048192 cpu:         0.1
 (Enter /share/apps/gaussian/g09_D01/g09/l302.exe)
 NPDir=0 NMtPBC=     1 NCelOv=     1 NCel=       1 NClECP=     1 NCelD=      1
         NCelK=      1 NCelE2=     1 NClLst=     1 CellRange=     0.0.
 One-electron integrals computed using PRISM.
 NBasis=   234 RedAO= T EigKep=  1.75D-01  NBF=   234
 NBsUse=   234 1.00D-06 EigRej= -1.00D+00 NBFU=   234
 Precomputing XC quadrature grid using
 IXCGrd= 4 IRadAn=           0 IRanWt=          -1 IRanGd=           0 AccXCQ= 0.00D+00.
 Generated NRdTot=       0 NPtTot=           0 NUsed=           0 NTot=          32
 NSgBfM=   200   200   202   202   204 MxSgAt=    74 MxSgA2=    73.
 Leave Link  302 at Fri Aug 10 23:19:52 2018, MaxMem=  1879048192 cpu:         3.1
 (Enter /share/apps/gaussian/g09_D01/g09/l308.exe)
 Leave Link  308 at Fri Aug 10 23:19:52 2018, MaxMem=  1879048192 cpu:         0.1
 (Enter /share/apps/gaussian/g09_D01/g09/l303.exe)
 DipDrv:  MaxL=1.
 Leave Link  303 at Fri Aug 10 23:19:52 2018, MaxMem=  1879048192 cpu:         0.1
 (Enter /share/apps/gaussian/g09_D01/g09/l401.exe)
 ExpMin= 1.69D-01 ExpMax= 1.31D+02 ExpMxC= 1.31D+02 IAcc=1 IRadAn=         1 AccDes= 0.00D+00
 Harris functional with IExCor= 4639 and IRadAn=       1 diagonalized for initial guess.
 HarFok:  IExCor= 4639 AccDes= 0.00D+00 IRadAn=         1 IDoV= 1 UseB2=F ITyADJ=14
 ICtDFT=  3500011 ScaDFX=  1.000000  1.000000  1.000000  1.000000
 FoFCou: FMM=F IPFlag=           0 FMFlag=      100000 FMFlg1=        2001
         NFxFlg=           0 DoJE=T BraDBF=F KetDBF=T FulRan=T
         wScrn=  0.000000 ICntrl=     500 IOpCl=  0 I1Cent=   200000004 NGrid=           0
         NMat0=    1 NMatS0=      1 NMatT0=    0 NMatD0=    1 NMtDS0=    0 NMtDT0=    0
 Symmetry not used in FoFCou.
 Harris En= -1628.85398602369    
 JPrj=0 DoOrth=F DoCkMO=F.
 Leave Link  401 at Fri Aug 10 23:19:55 2018, MaxMem=  1879048192 cpu:         5.2
 (Enter /share/apps/gaussian/g09_D01/g09/l601.exe)
 Using densities on the checkpoint file.
 Alpha spin Natural Transition Orbitals for state    1:
                         138       139       140       141       142
                           O         O         O         O         O
     Eigenvalues --     0.00026   0.00092   0.00099   0.48074   0.51917
   1 1   C  1S          0.00018   0.00045   0.00002   0.00092  -0.00006
   2        2S         -0.00032  -0.00161  -0.00004  -0.00361   0.00025
   3        2PX        -0.00281  -0.00203  -0.00023  -0.00392   0.00010
   4        2PY         0.00573   0.00238   0.00039   0.00370   0.00009
   5        2PZ        -0.00584  -0.00102  -0.00037  -0.00031  -0.00035
   6 2   C  1S          0.00019  -0.00018   0.00000  -0.00057   0.00005
   7        2S         -0.00076   0.00075  -0.00002   0.00253  -0.00023
   8        2PX        -0.00131  -0.00082  -0.00005  -0.00043  -0.00002
   9        2PY         0.00315   0.00276   0.00018   0.00347  -0.00018
  10        2PZ        -0.00310  -0.00275  -0.00020  -0.00431   0.00025
  11 3   H  1S         -0.00003   0.00043   0.00002   0.00079  -0.00006
  12 4   C  1S          0.00002  -0.00183  -0.00003  -0.00334   0.00025
  13        2S         -0.00008   0.00708   0.00012   0.01433  -0.00107
  14        2PX         0.00021   0.00537   0.00014   0.01007  -0.00078
  15        2PY        -0.00034  -0.00340  -0.00008  -0.00429   0.00035
  16        2PZ        -0.00120  -0.00063  -0.00011  -0.00133  -0.00002
  17 5   C  1S         -0.00006  -0.00101  -0.00003  -0.00155   0.00011
  18        2S          0.00035   0.00361   0.00012   0.00612  -0.00043
  19        2PX        -0.00181   0.00394   0.00003   0.00659  -0.00069
  20        2PY         0.00616   0.00223   0.00042   0.00350   0.00012
  21        2PZ        -0.00639  -0.00387  -0.00047  -0.00575   0.00001
  22 6   N  1S         -0.00036  -0.00003  -0.00004   0.00005  -0.00004
  23        2S          0.00145   0.00017   0.00018  -0.00019   0.00017
  24        2PX         0.00510   0.00131   0.00032   0.00188   0.00021
  25        2PY        -0.01323  -0.00258  -0.00099  -0.00498  -0.00066
  26        2PZ         0.01168   0.00232   0.00078   0.00495   0.00046
  27 7   C  1S         -0.00040  -0.00197  -0.00006  -0.00437   0.00031
  28        2S          0.00127   0.00566   0.00017   0.01808  -0.00130
  29        2PX         0.00515   0.01578   0.00072   0.02513  -0.00171
  30        2PY        -0.00351  -0.00112  -0.00020  -0.00214  -0.00008
  31        2PZ         0.00393   0.00266   0.00032  -0.00365   0.00050
  32 8   H  1S         -0.00030   0.00016  -0.00002  -0.00196   0.00013
  33 9   C  1S          0.00054   0.00230   0.00008   0.00334  -0.00022
  34        2S         -0.00181  -0.00858  -0.00027  -0.01410   0.00096
  35        2PX        -0.00141  -0.00927  -0.00037  -0.01434   0.00108
  36        2PY        -0.00166  -0.00733  -0.00028  -0.01331   0.00094
  37        2PZ         0.00106   0.00217   0.00008   0.00035   0.00002
  38 10  H  1S         -0.00053  -0.00296  -0.00014  -0.00615   0.00045
  39 11  C  1S          0.00054  -0.00008   0.00012  -0.00018   0.00018
  40        2S         -0.00191   0.00034  -0.00046   0.00073  -0.00077
  41        2PX         0.00129   0.00014   0.00013   0.00038  -0.00010
  42        2PY         0.00335  -0.00023   0.00045  -0.00016   0.00099
  43        2PZ        -0.00344  -0.00005  -0.00033  -0.00042  -0.00032
  44 12  C  1S         -0.00063   0.00004  -0.00008   0.00003  -0.00006
  45        2S          0.00276  -0.00016   0.00034  -0.00011   0.00031
  46        2PX         0.00263  -0.00004   0.00022  -0.00017   0.00023
  47        2PY        -0.00081  -0.00002  -0.00011  -0.00001  -0.00003
  48        2PZ         0.00338   0.00023   0.00041   0.00009   0.00038
  49 13  C  1S          0.00020  -0.00276  -0.00002   0.00029  -0.00002
  50        2S         -0.00036   0.01343   0.00017   0.00411  -0.00030
  51        2PX        -0.00403  -0.02358  -0.00072  -0.03925   0.00284
  52        2PY        -0.00246  -0.02444  -0.00063  -0.03576   0.00254
  53        2PZ        -0.00023  -0.01449  -0.00018  -0.03170   0.00228
  54 14  H  1S         -0.00039  -0.00052   0.00000  -0.00040   0.00000
  55 15  H  1S         -0.00621  -0.00058  -0.00038  -0.00114  -0.00027
  56 16  H  1S         -0.00158  -0.00033  -0.00016  -0.00098  -0.00018
  57 17  H  1S          0.00587   0.00085   0.00048   0.00187   0.00067
  58 18  H  1S          0.00175   0.00068   0.00004   0.00142   0.00003
  59 19  H  1S          0.00000   0.00015  -0.00002   0.00019  -0.00008
  60 20  H  1S         -0.00339  -0.00075  -0.00023  -0.00160  -0.00028
  61 21  C  1S          0.00106  -0.00267   0.00008  -0.03396   0.00242
  62        2S         -0.00341   0.01314  -0.00018   0.15003  -0.01069
  63        2PX         0.00370   0.05629   0.00121   0.16143  -0.01163
  64        2PY         0.00228  -0.00938  -0.00004  -0.02503   0.00199
  65        2PZ        -0.00740  -0.04837  -0.00122  -0.13838   0.00971
  66 22  H  1S          0.00121   0.00674   0.00022  -0.03049   0.00217
  67 23  C  1S         -0.00080  -0.03186  -0.00054   0.00213  -0.00015
  68        2S          0.00269   0.11614   0.00195  -0.01679   0.00119
  69        2PX        -0.00600   0.02091  -0.00020  -0.06431   0.00460
  70        2PY         0.00021   0.01232   0.00023  -0.02421   0.00178
  71        2PZ         0.00241   0.00690   0.00033   0.00145  -0.00015
  72 24  H  1S         -0.00388  -0.04057  -0.00093  -0.06160   0.00441
  73 25  C  1S         -0.00017   0.06789   0.00096   0.02301  -0.00164
  74        2S          0.00049  -0.24400  -0.00346  -0.10023   0.00712
  75        2PX         0.00247  -0.13454  -0.00182   0.24543  -0.01751
  76        2PY        -0.00011   0.04209   0.00065   0.07032  -0.00504
  77        2PZ         0.00025   0.10306   0.00145  -0.00584   0.00045
  78 26  O  1S          0.00090   0.05383   0.00084   0.00954  -0.00068
  79        2S         -0.00348  -0.24642  -0.00380  -0.04170   0.00296
  80        2PX        -0.00347   0.28657   0.00364   0.80291  -0.05713
  81        2PY        -0.00319   0.10648   0.00126   0.19810  -0.01424
  82        2PZ         0.00235   0.02452   0.00054  -0.16727   0.01200
  83 27  C  1S         -0.00016  -0.01584  -0.00023  -0.00464   0.00033
  84        2S          0.00057   0.05696   0.00085   0.02309  -0.00164
  85        2PX        -0.00253   0.18115   0.00243  -0.05236   0.00377
  86        2PY        -0.00077   0.01580   0.00021  -0.01112   0.00077
  87        2PZ         0.00136  -0.10749  -0.00148   0.01836  -0.00131
  88 28  C  1S          0.00004  -0.01430  -0.00020  -0.00673   0.00048
  89        2S         -0.00020   0.06115   0.00085   0.02780  -0.00197
  90        2PX        -0.00193   0.06937   0.00087  -0.03387   0.00245
  91        2PY        -0.00083   0.00660   0.00004  -0.02931   0.00207
  92        2PZ         0.00045  -0.00577  -0.00001  -0.02697   0.00193
  93 29  H  1S         -0.00089   0.35124   0.00488   0.02815  -0.00195
  94 30  C  1S          0.00001  -0.02373  -0.00034   0.01765  -0.00126
  95        2S          0.00002   0.08616   0.00122  -0.07466   0.00533
  96        2PX         0.00179  -0.20048  -0.00277   0.09030  -0.00647
  97        2PY         0.00067  -0.07729  -0.00101   0.03930  -0.00282
  98        2PZ         0.00045  -0.05879  -0.00084   0.02759  -0.00197
  99 31  O  1S         -0.00030   0.07918   0.00110  -0.00254   0.00020
 100        2S          0.00134  -0.39268  -0.00545   0.00436  -0.00038
 101        2PX        -0.00120  -0.49531  -0.00710   0.38260  -0.02735
 102        2PY         0.00031  -0.00824  -0.00022   0.08418  -0.00596
 103        2PZ        -0.00024   0.31697   0.00457  -0.11130   0.00795
 104 32  C  1S          0.00017  -0.00351  -0.00004   0.00770  -0.00055
 105        2S         -0.00048   0.00526   0.00005  -0.03026   0.00216
 106        2PX         0.00158  -0.07238  -0.00092   0.04893  -0.00351
 107        2PY         0.00132  -0.05715  -0.00080   0.02897  -0.00206
 108        2PZ         0.00002  -0.00189   0.00003   0.00265  -0.00020
 109 33  H  1S          0.00152  -0.05616  -0.00070   0.04588  -0.00329
 110 34  C  1S         -0.00009   0.00806   0.00011  -0.00364   0.00026
 111        2S          0.00022  -0.02480  -0.00033   0.01357  -0.00097
 112        2PX        -0.00116   0.06486   0.00087  -0.01243   0.00090
 113        2PY         0.00010   0.04207   0.00059  -0.01343   0.00099
 114        2PZ        -0.00049   0.03943   0.00055  -0.01818   0.00129
 115 35  H  1S          0.00115  -0.09087  -0.00124   0.02904  -0.00209
 116 36  H  1S          0.00074  -0.04021  -0.00053   0.02677  -0.00192
 117 37  H  1S         -0.00126   0.09381   0.00128  -0.03152   0.00227
 118 38  C  1S          0.00862  -0.00021   0.01584   0.00033   0.00463
 119        2S         -0.03297   0.00074  -0.05696  -0.00165  -0.02309
 120        2PX        -0.11218  -0.00271   0.18116  -0.00369  -0.05237
 121        2PY        -0.02972  -0.00022   0.01574  -0.00081  -0.01110
 122        2PZ         0.04878   0.00156  -0.10743   0.00130   0.01835
 123 39  C  1S          0.00304  -0.00033   0.02373  -0.00126  -0.01765
 124        2S         -0.01282   0.00121  -0.08618   0.00531   0.07467
 125        2PX         0.07374   0.00289  -0.20044   0.00640   0.09030
 126        2PY         0.02335   0.00117  -0.07736   0.00278   0.03932
 127        2PZ         0.02123   0.00082  -0.05874   0.00196   0.02758
 128 40  C  1S         -0.00426   0.00096  -0.06790  -0.00165  -0.02301
 129        2S          0.01953  -0.00343   0.24401   0.00716   0.10022
 130        2PX         0.11084   0.00199  -0.13448   0.01747   0.24542
 131        2PY         0.01982  -0.00052   0.04201   0.00498   0.07035
 132        2PZ         0.01874  -0.00146   0.10312  -0.00038  -0.00587
 133 41  O  1S          0.00949   0.00114  -0.07918   0.00017   0.00255
 134        2S         -0.03783  -0.00562   0.39268  -0.00024  -0.00437
 135        2PX        -0.10943   0.00684  -0.49540   0.02718   0.38263
 136        2PY         0.00982   0.00004  -0.00813   0.00603   0.08413
 137        2PZ         0.02657  -0.00439   0.31688  -0.00791  -0.11128
 138 42  C  1S          0.00395   0.00012  -0.00804   0.00026   0.00364
 139        2S         -0.00915  -0.00037   0.02475  -0.00096  -0.01357
 140        2PX        -0.05759  -0.00097   0.06485  -0.00088  -0.01243
 141        2PY        -0.00668  -0.00059   0.04211  -0.00093  -0.01344
 142        2PZ        -0.01127  -0.00056   0.03942  -0.00130  -0.01818
 143 43  H  1S         -0.05163  -0.00134   0.09085  -0.00205  -0.02904
 144 44  C  1S         -0.00058  -0.00019   0.01431   0.00048   0.00673
 145        2S          0.00232   0.00084  -0.06119  -0.00199  -0.02780
 146        2PX        -0.11348  -0.00110   0.06931  -0.00238  -0.03387
 147        2PY        -0.02558  -0.00014   0.00662  -0.00211  -0.02931
 148        2PZ         0.01721   0.00015  -0.00578  -0.00192  -0.02697
 149 45  C  1S          0.04895  -0.00034   0.03186  -0.00015  -0.00213
 150        2S         -0.16537   0.00128  -0.11614   0.00120   0.01679
 151        2PX        -0.31811  -0.00086   0.02085  -0.00457  -0.06431
 152        2PY        -0.01361  -0.00011   0.01231  -0.00167  -0.02421
 153        2PZ         0.15275   0.00018   0.00692   0.00005   0.00146
 154 46  H  1S          0.01028   0.00502  -0.35126  -0.00206  -0.02814
 155 47  C  1S         -0.00841  -0.00006   0.00349  -0.00055  -0.00770
 156        2S          0.02395   0.00010  -0.00519   0.00216   0.03026
 157        2PX         0.08506   0.00112  -0.07239   0.00346   0.04894
 158        2PY         0.06516   0.00081  -0.05707   0.00207   0.02895
 159        2PZ         0.00379   0.00006  -0.00201   0.00018   0.00267
 160 48  H  1S          0.06398   0.00138  -0.09382   0.00222   0.03152
 161 49  H  1S         -0.08407  -0.00091   0.05610  -0.00325  -0.04588
 162 50  C  1S         -0.05665  -0.00016   0.00267   0.00242   0.03396
 163        2S          0.17794   0.00058  -0.01313  -0.01070  -0.15003
 164        2PX         0.29240  -0.00031   0.05637   0.01138   0.16147
 165        2PY        -0.03160   0.00019  -0.00948  -0.00158  -0.02510
 166        2PZ        -0.28592   0.00007  -0.04835  -0.01001  -0.13832
 167 51  O  1S         -0.05741   0.00066  -0.05384  -0.00068  -0.00954
 168        2S          0.22609  -0.00310   0.24644   0.00298   0.04170
 169        2PX        -0.18555  -0.00447   0.28648   0.05732   0.80290
 170        2PY        -0.04422  -0.00175   0.10660   0.01400   0.19813
 171        2PZ         0.06151  -0.00016   0.02443  -0.01184  -0.16729
 172 52  H  1S         -0.03891  -0.00060   0.04028  -0.00190  -0.02677
 173 53  C  1S         -0.00932  -0.00005   0.00276  -0.00002  -0.00029
 174        2S          0.01517   0.00019  -0.01345  -0.00029  -0.00411
 175        2PX        -0.23865  -0.00012  -0.02356  -0.00275  -0.03925
 176        2PY        -0.13713   0.00004  -0.02453  -0.00256  -0.03579
 177        2PZ        -0.01996   0.00024  -0.01450  -0.00223  -0.03168
 178 54  H  1S          0.22397  -0.00014   0.04060   0.00437   0.06160
 179 55  C  1S          0.02165   0.00001   0.00196   0.00031   0.00437
 180        2S         -0.07375  -0.00003  -0.00566  -0.00128  -0.01808
 181        2PX         0.21910   0.00034   0.01576   0.00186   0.02510
 182        2PY        -0.01550  -0.00015  -0.00108  -0.00038  -0.00208
 183        2PZ         0.04213   0.00023   0.00264  -0.00003  -0.00371
 184 56  H  1S         -0.06338  -0.00004  -0.00678   0.00218   0.03049
 185 57  C  1S          0.01095  -0.00001   0.00182   0.00022   0.00334
 186        2S         -0.03822   0.00005  -0.00706  -0.00097  -0.01434
 187        2PX         0.04803  -0.00001   0.00537   0.00066   0.01007
 188        2PY        -0.03641   0.00002  -0.00340  -0.00026  -0.00428
 189        2PZ         0.00156  -0.00009  -0.00066  -0.00021  -0.00132
 190 58  C  1S         -0.02000  -0.00002  -0.00231  -0.00025  -0.00334
 191        2S          0.07043   0.00004   0.00860   0.00105   0.01410
 192        2PX        -0.11443  -0.00014  -0.00931  -0.00097  -0.01436
 193        2PY        -0.08710  -0.00010  -0.00729  -0.00095  -0.01329
 194        2PZ         0.01738   0.00000   0.00219   0.00007   0.00033
 195 59  H  1S          0.00815   0.00002  -0.00015   0.00015   0.00195
 196 60  C  1S         -0.00292  -0.00001  -0.00046  -0.00007  -0.00092
 197        2S          0.00713   0.00000   0.00163   0.00027   0.00361
 198        2PX        -0.02059  -0.00016  -0.00203  -0.00045  -0.00389
 199        2PY         0.04645   0.00033   0.00238   0.00061   0.00363
 200        2PZ        -0.03033  -0.00035  -0.00097  -0.00039  -0.00025
 201 61  C  1S          0.01142   0.00001   0.00102   0.00011   0.00155
 202        2S         -0.03793  -0.00002  -0.00364  -0.00044  -0.00612
 203        2PX         0.05058  -0.00006   0.00398   0.00025   0.00663
 204        2PY         0.05539   0.00037   0.00222   0.00061   0.00343
 205        2PZ        -0.06232  -0.00038  -0.00384  -0.00080  -0.00568
 206 62  H  1S         -0.00141  -0.00002   0.00056   0.00005   0.00040
 207 63  C  1S          0.00245  -0.00001   0.00018   0.00003   0.00057
 208        2S         -0.00980   0.00005  -0.00075  -0.00013  -0.00253
 209        2PX        -0.01215  -0.00003  -0.00082  -0.00008  -0.00041
 210        2PY         0.03379   0.00010   0.00270   0.00032   0.00344
 211        2PZ        -0.04379  -0.00014  -0.00274  -0.00037  -0.00429
 212 64  H  1S         -0.00632   0.00000  -0.00046  -0.00005  -0.00079
 213 65  H  1S          0.05038   0.00008   0.00297   0.00042   0.00616
 214 66  N  1S          0.00069   0.00004   0.00003   0.00003  -0.00005
 215        2S         -0.00388  -0.00018  -0.00017  -0.00014   0.00021
 216        2PX         0.03270   0.00027   0.00129   0.00047   0.00182
 217        2PY        -0.06737  -0.00092  -0.00256  -0.00135  -0.00481
 218        2PZ         0.06396   0.00072   0.00228   0.00116   0.00481
 219 67  C  1S         -0.00018   0.00008  -0.00004   0.00006  -0.00004
 220        2S          0.00064  -0.00035   0.00015  -0.00029   0.00015
 221        2PX        -0.00252   0.00022  -0.00004   0.00021  -0.00020
 222        2PY         0.00164  -0.00010   0.00001  -0.00003  -0.00001
 223        2PZ        -0.00062   0.00039   0.00024   0.00039   0.00003
 224 68  C  1S          0.00131  -0.00011   0.00008  -0.00016   0.00020
 225        2S         -0.00490   0.00045  -0.00032   0.00066  -0.00083
 226        2PX         0.00211   0.00014   0.00014  -0.00004   0.00039
 227        2PY        -0.00229   0.00044  -0.00020   0.00096  -0.00030
 228        2PZ        -0.00590  -0.00031  -0.00006  -0.00037  -0.00037
 229 69  H  1S         -0.01963  -0.00003  -0.00069  -0.00023  -0.00140
 230 70  H  1S         -0.00230   0.00003  -0.00015   0.00006  -0.00020
 231 71  H  1S          0.02176   0.00022   0.00075   0.00050   0.00153
 232 72  H  1S          0.01665   0.00035   0.00059   0.00043   0.00108
 233 73  H  1S          0.00779   0.00014   0.00033   0.00032   0.00094
 234 74  H  1S         -0.02391  -0.00045  -0.00084  -0.00093  -0.00175
                         143       144       145       146       147
                           V         V         V         V         V
     Eigenvalues --     0.51917   0.48074   0.00099   0.00092   0.00026
   1 1   C  1S          0.00000  -0.00036   0.00006  -0.00018   0.00002
   2        2S          0.00043   0.00153  -0.00027   0.00063  -0.00043
   3        2PX        -0.00054  -0.00929  -0.00011  -0.00814  -0.00063
   4        2PY         0.00155   0.02730   0.00011   0.01922   0.00094
   5        2PZ        -0.00096  -0.02761  -0.00044  -0.01977  -0.00223
   6 2   C  1S          0.00018  -0.00020  -0.00002   0.00002  -0.00010
   7        2S         -0.00103   0.00110   0.00009  -0.00018   0.00064
   8        2PX        -0.00415  -0.04447   0.00044   0.01169  -0.00071
   9        2PY         0.00854   0.09665  -0.00095  -0.02501   0.00286
  10        2PZ        -0.00860  -0.09300   0.00105   0.02389  -0.00279
  11 3   H  1S         -0.00009  -0.00190   0.00012  -0.00021  -0.00017
  12 4   C  1S          0.00036   0.00117  -0.00005   0.00058  -0.00029
  13        2S         -0.00139  -0.00536   0.00021  -0.00246   0.00107
  14        2PX         0.00298   0.04754  -0.00026  -0.00294   0.00274
  15        2PY        -0.00759  -0.10719   0.00093   0.00552  -0.00484
  16        2PZ         0.00662   0.11157  -0.00079  -0.00257   0.00621
  17 5   C  1S         -0.00001   0.00012   0.00003   0.00005   0.00008
  18        2S          0.00019  -0.00059  -0.00008  -0.00016  -0.00051
  19        2PX        -0.00099  -0.01117   0.00013  -0.01253   0.00063
  20        2PY         0.00173   0.02449  -0.00011   0.02918  -0.00041
  21        2PZ        -0.00134  -0.02299   0.00014  -0.02782   0.00014
  22 6   N  1S         -0.00002   0.00018  -0.00008  -0.00010  -0.00013
  23        2S          0.00000  -0.00099   0.00034   0.00057   0.00065
  24        2PX         0.00411   0.03912  -0.00008  -0.00287   0.00041
  25        2PY        -0.00639  -0.07887   0.00036   0.00582  -0.00362
  26        2PZ         0.00596   0.07911   0.00005  -0.00615   0.00396
  27 7   C  1S          0.00002  -0.00076  -0.00002  -0.00044  -0.00013
  28        2S         -0.00015   0.00346   0.00008   0.00174   0.00067
  29        2PX        -0.00057   0.00846   0.00024   0.03192  -0.00016
  30        2PY         0.00252  -0.01046  -0.00073  -0.06788   0.00033
  31        2PZ        -0.00216   0.00783   0.00073   0.06255  -0.00095
  32 8   H  1S         -0.00016  -0.00093  -0.00013   0.00059   0.00000
  33 9   C  1S          0.00018  -0.00053  -0.00001  -0.00005  -0.00026
  34        2S         -0.00046   0.00277   0.00003   0.00010   0.00085
  35        2PX         0.00413   0.05171  -0.00061   0.00320   0.00137
  36        2PY        -0.00858  -0.11350   0.00136  -0.00578  -0.00386
  37        2PZ         0.00853   0.10678  -0.00142   0.00575   0.00311
  38 10  H  1S          0.00012  -0.00012  -0.00006   0.00030  -0.00025
  39 11  C  1S         -0.00082  -0.00014   0.00011   0.00005   0.00216
  40        2S          0.00418   0.00061  -0.00084  -0.00028  -0.01134
  41        2PX         0.00193   0.00295  -0.00018  -0.00168   0.00102
  42        2PY        -0.00526  -0.00307   0.00084   0.00226   0.00870
  43        2PZ         0.00130   0.00349   0.00000  -0.00271  -0.00390
  44 12  C  1S          0.00001  -0.00001  -0.00009  -0.00001  -0.00022
  45        2S          0.00047  -0.00005   0.00080   0.00005   0.00034
  46        2PX         0.00336   0.00109   0.00094  -0.00143  -0.00061
  47        2PY        -0.00137  -0.00392   0.00075   0.00317   0.00007
  48        2PZ         0.00093   0.00382   0.00026  -0.00317   0.00091
  49 13  C  1S          0.00011   0.00146  -0.00001   0.00070   0.00018
  50        2S         -0.00053  -0.00787   0.00004  -0.00303  -0.00120
  51        2PX        -0.01024  -0.14367   0.00115  -0.06250  -0.00377
  52        2PY         0.02269   0.31952  -0.00271   0.14444   0.00776
  53        2PZ        -0.01828  -0.26202   0.00210  -0.11448  -0.00669
  54 14  H  1S         -0.00027  -0.00149   0.00002   0.00002   0.00006
  55 15  H  1S         -0.00461  -0.02422   0.00160   0.00403   0.00450
  56 16  H  1S         -0.00080  -0.00216   0.00040   0.00035   0.00366
  57 17  H  1S          0.00118   0.02592  -0.00018  -0.00429   0.00451
  58 18  H  1S          0.00422   0.02453  -0.00060  -0.00442  -0.00141
  59 19  H  1S         -0.00067   0.00124  -0.00056  -0.00023   0.00122
  60 20  H  1S         -0.00523  -0.02542  -0.00111   0.00467   0.00146
  61 21  C  1S          0.00006   0.00005  -0.00002   0.00013  -0.00032
  62        2S         -0.00023   0.00017   0.00010  -0.00127   0.00189
  63        2PX         0.00371   0.04388  -0.00106   0.02454   0.00488
  64        2PY        -0.00909  -0.10396   0.00244  -0.05085  -0.01094
  65        2PZ         0.00649   0.07906  -0.00177   0.04084   0.00831
  66 22  H  1S         -0.00015   0.00091   0.00000   0.00360   0.00048
  67 23  C  1S          0.00001   0.00053  -0.00001   0.00067   0.00030
  68        2S         -0.00005  -0.00236   0.00004  -0.00239  -0.00173
  69        2PX         0.01218   0.17647  -0.00083   0.09564  -0.00363
  70        2PY        -0.03185  -0.45843   0.00239  -0.25936   0.00817
  71        2PZ         0.02134   0.30613  -0.00161   0.17518  -0.00662
  72 24  H  1S          0.00093   0.01325  -0.00012   0.00357  -0.00051
  73 25  C  1S         -0.00002  -0.00032   0.00001  -0.00070  -0.00019
  74        2S          0.00011   0.00161  -0.00005   0.00393   0.00115
  75        2PX         0.00041   0.00737   0.00294  -0.20587   0.00064
  76        2PY        -0.00104  -0.01964  -0.00792   0.56350  -0.00456
  77        2PZ         0.00065   0.01223   0.00521  -0.37263   0.00279
  78 26  O  1S          0.00001   0.00017   0.00002  -0.00113  -0.00008
  79        2S         -0.00007  -0.00093  -0.00011   0.00636   0.00042
  80        2PX        -0.01274  -0.18016   0.00022  -0.03434   0.00201
  81        2PY         0.03278   0.46289  -0.00101   0.11724  -0.00379
  82        2PZ        -0.02186  -0.30793   0.00067  -0.07856   0.00262
  83 27  C  1S          0.00000  -0.00003   0.00000   0.00077   0.00004
  84        2S          0.00001   0.00004   0.00002  -0.00481  -0.00020
  85        2PX        -0.00436  -0.06267  -0.00212   0.14445   0.00042
  86        2PY         0.01284   0.18446   0.00616  -0.41824  -0.00165
  87        2PZ        -0.00820  -0.11779  -0.00393   0.26311   0.00103
  88 28  C  1S          0.00008   0.00102   0.00000  -0.00051   0.00003
  89        2S         -0.00039  -0.00483   0.00001   0.00282  -0.00022
  90        2PX        -0.00408  -0.05942  -0.00111   0.07134  -0.00127
  91        2PY         0.01221   0.17558   0.00305  -0.20154   0.00317
  92        2PZ        -0.00808  -0.11565  -0.00199   0.13312  -0.00178
  93 29  H  1S          0.00031   0.00423   0.00036  -0.02150  -0.00160
  94 30  C  1S          0.00001   0.00015   0.00001  -0.00081  -0.00006
  95        2S         -0.00005  -0.00068  -0.00007   0.00372   0.00033
  96        2PX        -0.00123  -0.01769  -0.00043   0.02755  -0.00144
  97        2PY         0.00403   0.05789   0.00140  -0.09888   0.00362
  98        2PZ        -0.00263  -0.03774  -0.00089   0.06334  -0.00248
  99 31  O  1S          0.00004   0.00054   0.00003  -0.00183  -0.00012
 100        2S         -0.00022  -0.00304  -0.00020   0.01127   0.00079
 101        2PX         0.00426   0.06008   0.00132  -0.08642  -0.00132
 102        2PY        -0.01110  -0.15736  -0.00307   0.20502   0.00067
 103        2PZ         0.00710   0.10050   0.00200  -0.13412  -0.00061
 104 32  C  1S         -0.00002  -0.00030   0.00001  -0.00019  -0.00004
 105        2S          0.00010   0.00135  -0.00003   0.00088   0.00022
 106        2PX         0.00059   0.00805  -0.00105   0.07537   0.00002
 107        2PY        -0.00191  -0.02589   0.00310  -0.22116  -0.00067
 108        2PZ         0.00123   0.01668  -0.00205   0.14792   0.00043
 109 33  H  1S          0.00013   0.00125   0.00003  -0.00490  -0.00025
 110 34  C  1S          0.00001   0.00016   0.00000  -0.00058   0.00001
 111        2S         -0.00006  -0.00074  -0.00002   0.00309  -0.00006
 112        2PX         0.00384   0.05508   0.00183  -0.12679   0.00077
 113        2PY        -0.01155  -0.16584  -0.00563   0.38679  -0.00245
 114        2PZ         0.00754   0.10832   0.00368  -0.25366   0.00170
 115 35  H  1S          0.00006   0.00090   0.00008  -0.00338  -0.00005
 116 36  H  1S          0.00002   0.00012   0.00001  -0.00139  -0.00013
 117 37  H  1S          0.00001   0.00005   0.00004  -0.00263   0.00008
 118 38  C  1S          0.00003   0.00000  -0.00077  -0.00002   0.00015
 119        2S         -0.00004   0.00000   0.00481   0.00011  -0.00043
 120        2PX        -0.06265   0.00458   0.14442   0.00194  -0.05968
 121        2PY         0.18442  -0.01347  -0.41828  -0.00558   0.17570
 122        2PZ        -0.11776   0.00860   0.26310   0.00355  -0.11141
 123 39  C  1S         -0.00015   0.00001   0.00082   0.00002  -0.00044
 124        2S          0.00068  -0.00004  -0.00377  -0.00008   0.00208
 125        2PX        -0.01769   0.00130   0.02753   0.00040   0.05206
 126        2PY         0.05788  -0.00422  -0.09889  -0.00141  -0.15874
 127        2PZ        -0.03773   0.00276   0.06331   0.00090   0.10564
 128 40  C  1S          0.00032  -0.00002   0.00071   0.00001  -0.00161
 129        2S         -0.00161   0.00012  -0.00398  -0.00007   0.01106
 130        2PX         0.00735  -0.00063  -0.20594  -0.00292  -0.02844
 131        2PY        -0.01960   0.00176   0.56344   0.00799   0.09782
 132        2PZ         0.01220  -0.00109  -0.37263  -0.00530  -0.06455
 133 41  O  1S         -0.00054   0.00004   0.00182   0.00002  -0.00050
 134        2S          0.00304  -0.00021  -0.01123  -0.00015   0.00298
 135        2PX         0.06007  -0.00431  -0.08638  -0.00110   0.04052
 136        2PY        -0.15734   0.01134   0.20503   0.00273  -0.10007
 137        2PZ         0.10049  -0.00723  -0.13416  -0.00174   0.06498
 138 42  C  1S         -0.00016   0.00001   0.00058   0.00001   0.00007
 139        2S          0.00074  -0.00005  -0.00307  -0.00005  -0.00020
 140        2PX         0.05507  -0.00401  -0.12678  -0.00171  -0.00926
 141        2PY        -0.16580   0.01210   0.38679   0.00531   0.03264
 142        2PZ         0.10830  -0.00791  -0.25368  -0.00347  -0.02084
 143 43  H  1S         -0.00090   0.00006   0.00341   0.00007  -0.00208
 144 44  C  1S         -0.00102   0.00006   0.00051   0.00002   0.00082
 145        2S          0.00484  -0.00030  -0.00281  -0.00009  -0.00478
 146        2PX        -0.05940   0.00439   0.07134   0.00089   0.03340
 147        2PY         0.17554  -0.01284  -0.20152  -0.00264  -0.10081
 148        2PZ        -0.11563   0.00841   0.13307   0.00179   0.06602
 149 45  C  1S         -0.00052   0.00006  -0.00069  -0.00001   0.00301
 150        2S          0.00234  -0.00029   0.00250   0.00004  -0.01701
 151        2PX         0.17641  -0.01299   0.09556   0.00188   0.16643
 152        2PY        -0.45830   0.03354  -0.25931  -0.00504  -0.41636
 153        2PZ         0.30606  -0.02232   0.17517   0.00337   0.29235
 154 46  H  1S         -0.00423   0.00029   0.02143   0.00024  -0.00540
 155 47  C  1S          0.00031  -0.00002   0.00019   0.00001  -0.00048
 156        2S         -0.00135   0.00009  -0.00089  -0.00005   0.00240
 157        2PX         0.00805  -0.00056   0.07539   0.00108  -0.02450
 158        2PY        -0.02590   0.00178  -0.22121  -0.00312   0.07475
 159        2PZ         0.01669  -0.00115   0.14791   0.00211  -0.05157
 160 48  H  1S         -0.00006   0.00000   0.00262   0.00007   0.00106
 161 49  H  1S         -0.00126   0.00005   0.00488   0.00013  -0.00034
 162 50  C  1S         -0.00006  -0.00005  -0.00012   0.00000  -0.00135
 163        2S         -0.00013   0.00026   0.00123   0.00000   0.00722
 164        2PX         0.04395  -0.00255   0.02457  -0.00037  -0.24216
 165        2PY        -0.10419   0.00575  -0.05094   0.00113   0.54222
 166        2PZ         0.07918  -0.00480   0.04089  -0.00070  -0.40829
 167 51  O  1S         -0.00017   0.00001   0.00113   0.00001  -0.00046
 168        2S          0.00092  -0.00006  -0.00639  -0.00006   0.00201
 169        2PX        -0.18015   0.01295  -0.03433  -0.00076  -0.08004
 170        2PY         0.46285  -0.03325   0.11725   0.00233   0.20464
 171        2PZ        -0.30791   0.02206  -0.07850  -0.00158  -0.14429
 172 52  H  1S         -0.00012   0.00000   0.00137   0.00007  -0.00213
 173 53  C  1S         -0.00146   0.00010  -0.00071  -0.00002   0.00083
 174        2S          0.00787  -0.00059   0.00307   0.00006  -0.00660
 175        2PX        -0.14367   0.01025  -0.06256  -0.00050   0.15071
 176        2PY         0.31951  -0.02288   0.14451   0.00132  -0.36265
 177        2PZ        -0.26196   0.01909  -0.11449  -0.00109   0.28951
 178 54  H  1S         -0.01324   0.00096  -0.00356  -0.00001  -0.00336
 179 55  C  1S          0.00075  -0.00013   0.00045   0.00003  -0.00109
 180        2S         -0.00340   0.00064  -0.00177  -0.00011   0.00547
 181        2PX         0.00829  -0.00177   0.03186   0.00123   0.03090
 182        2PY        -0.00999   0.00398  -0.06788  -0.00265  -0.09032
 183        2PZ         0.00745  -0.00325   0.06252   0.00246   0.08338
 184 56  H  1S         -0.00088   0.00027  -0.00364  -0.00011  -0.00051
 185 57  C  1S         -0.00120  -0.00019  -0.00058   0.00003   0.00114
 186        2S          0.00551   0.00061   0.00246  -0.00012  -0.00644
 187        2PX         0.04748  -0.00380  -0.00292  -0.00036  -0.07398
 188        2PY        -0.10718   0.00770   0.00548   0.00102   0.15969
 189        2PZ         0.11137  -0.00928  -0.00250  -0.00089  -0.16741
 190 58  C  1S          0.00050  -0.00025   0.00004   0.00002  -0.00134
 191        2S         -0.00268   0.00085  -0.00005  -0.00010   0.00758
 192        2PX         0.05177  -0.00325   0.00314  -0.00053  -0.06345
 193        2PY        -0.11357   0.00762  -0.00580   0.00127   0.13241
 194        2PZ         0.10691  -0.00671   0.00580  -0.00131  -0.12738
 195 59  H  1S          0.00094   0.00003  -0.00058   0.00006   0.00013
 196 60  C  1S          0.00035  -0.00005   0.00019  -0.00005  -0.00026
 197        2S         -0.00157  -0.00021  -0.00069   0.00022   0.00133
 198        2PX        -0.00927   0.00078  -0.00821  -0.00035   0.01411
 199        2PY         0.02725  -0.00234   0.01925   0.00070  -0.03543
 200        2PZ        -0.02747   0.00297  -0.01979  -0.00103   0.03581
 201 61  C  1S         -0.00012   0.00003  -0.00005  -0.00004   0.00018
 202        2S          0.00056  -0.00027   0.00014   0.00014  -0.00085
 203        2PX        -0.01120   0.00061  -0.01257  -0.00021   0.00014
 204        2PY         0.02449  -0.00176   0.02918   0.00068   0.00443
 205        2PZ        -0.02295   0.00194  -0.02780  -0.00062  -0.00520
 206 62  H  1S          0.00151   0.00006  -0.00006   0.00001  -0.00156
 207 63  C  1S          0.00017  -0.00021  -0.00003   0.00002  -0.00022
 208        2S         -0.00094   0.00118   0.00024  -0.00009   0.00099
 209        2PX        -0.04461   0.00220   0.01165   0.00079   0.05404
 210        2PY         0.09689  -0.00526  -0.02504  -0.00172  -0.11833
 211        2PZ        -0.09327   0.00469   0.02390   0.00173   0.11293
 212 64  H  1S          0.00189  -0.00018   0.00025  -0.00010  -0.00226
 213 65  H  1S          0.00010  -0.00014  -0.00026   0.00003  -0.00040
 214 66  N  1S         -0.00017   0.00005   0.00010   0.00009   0.00024
 215        2S          0.00098  -0.00014  -0.00057  -0.00039  -0.00128
 216        2PX         0.03930  -0.00149  -0.00288  -0.00017  -0.04122
 217        2PY        -0.07898   0.00486   0.00586   0.00056   0.08367
 218        2PZ         0.07915  -0.00532  -0.00614  -0.00013  -0.08425
 219 67  C  1S          0.00001  -0.00001   0.00001   0.00008   0.00001
 220        2S         -0.00002  -0.00047  -0.00001  -0.00076  -0.00010
 221        2PX         0.00155   0.00318  -0.00146   0.00095  -0.00234
 222        2PY        -0.00407  -0.00080   0.00316   0.00084   0.00590
 223        2PZ         0.00391   0.00037  -0.00313   0.00020  -0.00609
 224 68  C  1S          0.00025   0.00079  -0.00006  -0.00010  -0.00019
 225        2S         -0.00119  -0.00405   0.00032   0.00082   0.00090
 226        2PX         0.00319   0.00150  -0.00163  -0.00026  -0.00325
 227        2PY        -0.00379  -0.00477   0.00225   0.00091   0.00294
 228        2PZ         0.00364   0.00079  -0.00270  -0.00012  -0.00350
 229 69  H  1S         -0.02487  -0.00069   0.00439   0.00071   0.02635
 230 70  H  1S         -0.00113   0.00084   0.00023   0.00053   0.00135
 231 71  H  1S          0.02590   0.00157  -0.00469   0.00100  -0.02755
 232 72  H  1S          0.02463   0.00112  -0.00402  -0.00172  -0.02495
 233 73  H  1S          0.00225   0.00048  -0.00039  -0.00041  -0.00226
 234 74  H  1S         -0.02583   0.00251   0.00425   0.00037   0.02640

 **********************************************************************

   Populations using transition density between ground and state  1.

 **********************************************************************

 Alpha  occ. eigenvalues --  -19.00763 -19.00763 -19.00628 -19.00628 -14.31365
 Alpha  occ. eigenvalues --  -14.31365 -10.19882 -10.19882 -10.18465 -10.18465
 Alpha  occ. eigenvalues --  -10.18426 -10.18424 -10.18280 -10.18280 -10.16758
 Alpha  occ. eigenvalues --  -10.16758 -10.13628 -10.13628 -10.12416 -10.12416
 Alpha  occ. eigenvalues --  -10.12319 -10.12319 -10.12060 -10.12060 -10.11411
 Alpha  occ. eigenvalues --  -10.11411 -10.11390 -10.11390 -10.11062 -10.11061
 Alpha  occ. eigenvalues --  -10.10983 -10.10983 -10.10964 -10.10964 -10.10509
 Alpha  occ. eigenvalues --  -10.10509 -10.09636 -10.09636 -10.09573 -10.09573
 Alpha  occ. eigenvalues --   -1.09913  -1.09913  -1.05826  -1.05826  -1.02778
 Alpha  occ. eigenvalues --   -1.02703  -0.91666  -0.91661  -0.89920  -0.89918
 Alpha  occ. eigenvalues --   -0.85988  -0.85781  -0.82364  -0.82003  -0.81850
 Alpha  occ. eigenvalues --   -0.81817  -0.79870  -0.79646  -0.79568  -0.79549
 Alpha  occ. eigenvalues --   -0.78049  -0.78042  -0.74396  -0.74366  -0.69410
 Alpha  occ. eigenvalues --   -0.69400  -0.67216  -0.67087  -0.66382  -0.66282
 Alpha  occ. eigenvalues --   -0.63820  -0.63788  -0.62565  -0.62558  -0.59532
 Alpha  occ. eigenvalues --   -0.59324  -0.58702  -0.58523  -0.56157  -0.56084
 Alpha  occ. eigenvalues --   -0.53923  -0.53913  -0.53637  -0.53529  -0.53432
 Alpha  occ. eigenvalues --   -0.53301  -0.52395  -0.52342  -0.51065  -0.50876
 Alpha  occ. eigenvalues --   -0.49207  -0.49192  -0.48488  -0.48463  -0.48188
 Alpha  occ. eigenvalues --   -0.48107  -0.47823  -0.47627  -0.47243  -0.47198
 Alpha  occ. eigenvalues --   -0.45968  -0.45952  -0.45136  -0.44947  -0.44802
 Alpha  occ. eigenvalues --   -0.44792  -0.44743  -0.44540  -0.43479  -0.43470
 Alpha  occ. eigenvalues --   -0.42648  -0.42293  -0.40965  -0.40951  -0.40387
 Alpha  occ. eigenvalues --   -0.40382  -0.40068  -0.40027  -0.39608  -0.39438
 Alpha  occ. eigenvalues --   -0.38630  -0.38627  -0.37210  -0.37137  -0.35345
 Alpha  occ. eigenvalues --   -0.34910  -0.33413  -0.33413  -0.32585  -0.32585
 Alpha  occ. eigenvalues --   -0.28825  -0.28014  -0.27914  -0.27861  -0.26341
 Alpha  occ. eigenvalues --   -0.26339  -0.23154  -0.23153  -0.20093  -0.19994
 Alpha  occ. eigenvalues --   -0.19122  -0.18791
 Alpha virt. eigenvalues --    0.06845   0.07000   0.14403   0.14552   0.16624
 Alpha virt. eigenvalues --    0.16980   0.18952   0.18955   0.21161   0.21191
 Alpha virt. eigenvalues --    0.27403   0.27509   0.35663   0.35999   0.37109
 Alpha virt. eigenvalues --    0.37171   0.37415   0.37448   0.40581   0.40747
 Alpha virt. eigenvalues --    0.41557   0.41869   0.42377   0.42401   0.43313
 Alpha virt. eigenvalues --    0.43362   0.46064   0.46097   0.46625   0.47260
 Alpha virt. eigenvalues --    0.48464   0.48466   0.49313   0.49767   0.50176
 Alpha virt. eigenvalues --    0.50210   0.50354   0.50357   0.51208   0.51371
 Alpha virt. eigenvalues --    0.52247   0.52259   0.52708   0.52754   0.53253
 Alpha virt. eigenvalues --    0.53356   0.53491   0.53814   0.54372   0.54397
 Alpha virt. eigenvalues --    0.54991   0.54997   0.55956   0.55973   0.56683
 Alpha virt. eigenvalues --    0.56748   0.57350   0.57373   0.58291   0.58365
 Alpha virt. eigenvalues --    0.59512   0.59535   0.63129   0.63151   0.65060
 Alpha virt. eigenvalues --    0.65204   0.66628   0.66711   0.69261   0.69293
 Alpha virt. eigenvalues --    0.69675   0.69725   0.70786   0.70843   0.72157
 Alpha virt. eigenvalues --    0.72161   0.72828   0.72838   0.74179   0.74194
 Alpha virt. eigenvalues --    0.77546   0.77551   0.81313   0.81338   0.87208
 Alpha virt. eigenvalues --    0.87211   0.88512   0.88513   0.91193   0.91250
 Alpha virt. eigenvalues --    0.92274   0.92291
          Condensed to atoms (all electrons):
 Mulliken charges:
               1
     1  C    6.000046
     2  C    6.000613
     3  H    1.000226
     4  C    6.000777
     5  C    6.000059
     6  N    7.000636
     7  C    5.999902
     8  H    1.000515
     9  C    6.000656
    10  H    1.000125
    11  C    6.000047
    12  C    6.000026
    13  C    6.000487
    14  H    1.000279
    15  H    1.000216
    16  H    1.000238
    17  H    1.000125
    18  H    1.000136
    19  H    1.000332
    20  H    1.000281
    21  C    5.999725
    22  H    1.000004
    23  C    6.000057
    24  H    0.999161
    25  C    6.000316
    26  O    7.999343
    27  C    5.999341
    28  C    5.999786
    29  H    0.999535
    30  C    5.999521
    31  O    7.999223
    32  C    5.999733
    33  H    0.999899
    34  C    5.999658
    35  H    0.999651
    36  H    0.999686
    37  H    0.999636
    38  C    6.000680
    39  C    6.000490
    40  C    5.999675
    41  O    8.000801
    42  C    6.000356
    43  H    1.000359
    44  C    6.000220
    45  C    5.999939
    46  H    1.000480
    47  C    6.000273
    48  H    1.000375
    49  H    1.000107
    50  C    6.000280
    51  O    8.000678
    52  H    1.000325
    53  C    5.999496
    54  H    1.000870
    55  C    6.000107
    56  H    0.999996
    57  C    5.999200
    58  C    5.999323
    59  H    0.999466
    60  C    5.999957
    61  C    5.999945
    62  H    0.999708
    63  C    5.999367
    64  H    0.999765
    65  H    0.999866
    66  N    6.999344
    67  C    5.999977
    68  C    5.999955
    69  H    0.999851
    70  H    0.999665
    71  H    0.999712
    72  H    0.999776
    73  H    0.999757
    74  H    0.999861
 Sum of Mulliken charges = 284.00000
 Mulliken charges with hydrogens summed into heavy atoms:
               1
     1  C    7.000272
     2  C    6.000613
     4  C    7.001293
     5  C    7.000184
     6  N    7.000636
     7  C    5.999902
     9  C    7.000935
    11  C    9.000626
    12  C    9.000775
    13  C    7.000491
    21  C    6.998887
    23  C    6.000057
    25  C    6.000316
    26  O    7.999343
    27  C    5.999341
    28  C    6.999684
    30  C    6.999172
    31  O    8.998758
    32  C    6.999419
    34  C    6.999293
    38  C    6.000680
    39  C    7.000849
    40  C    5.999675
    41  O    9.001281
    42  C    7.000730
    44  C    7.000327
    45  C    5.999939
    47  C    7.000598
    50  C    7.001150
    51  O    8.000678
    53  C    6.999493
    55  C    6.000107
    57  C    6.998666
    58  C    6.999031
    60  C    6.999722
    61  C    6.999810
    63  C    5.999367
    66  N    6.999344
    67  C    8.999204
    68  C    8.999350
 Electronic spatial extent (au):  <R**2>=             -1.1569
 Charge=              0.0000 electrons
 Dipole moment (field-independent basis, Debye):
    X=             -0.3776    Y=             -0.1455    Z=              0.2273  Tot=              0.4642
 Quadrupole moment (field-independent basis, Debye-Ang):
   XX=              0.0345   YY=              1.4983   ZZ=              0.0233
   XY=              1.9592   XZ=             -0.0228   YZ=             -1.1822
 Traceless Quadrupole moment (field-independent basis, Debye-Ang):
   XX=             -0.4842   YY=              0.9796   ZZ=             -0.4953
   XY=              1.9592   XZ=             -0.0228   YZ=             -1.1822
 Octapole moment (field-independent basis, Debye-Ang**2):
  XXX=            -21.1178  YYY=            -12.0381  ZZZ=              8.4541  XYY=            -12.1764
  XXY=             -6.5804  XXZ=             10.3955  XZZ=             -7.7054  YZZ=             -3.4997
  YYZ=              6.9453  XYZ=              3.8747
 Hexadecapole moment (field-independent basis, Debye-Ang**3):
 XXXX=              2.4088 YYYY=             89.0453 ZZZZ=              0.8249 XXXY=            109.4202
 XXXZ=             -1.2291 YYYX=             83.8658 YYYZ=            -44.3022 ZZZX=             -0.6688
 ZZZY=            -43.7513 XXYY=             67.0117 XXZZ=              0.7653 YYZZ=             35.4232
 XXYZ=            -53.8462 YYXZ=            -39.3416 ZZXY=             39.8984
 N-N= 4.151978653381D+03 E-N=-1.260566867156D-03  KE=-1.119821001762D-04
 Leave Link  601 at Fri Aug 10 23:19:55 2018, MaxMem=  1879048192 cpu:         0.2
 (Enter /share/apps/gaussian/g09_D01/g09/l801.exe)
 DoSCS=F DFT=T ScalE2(SS,OS)=  1.000000  1.000000
 ExpMin= 1.69D-01 ExpMax= 1.31D+02 ExpMxC= 1.31D+02 IAcc=3 IRadAn=         5 AccDes= 0.00D+00
 HarFok:  IExCor=  205 AccDes= 0.00D+00 IRadAn=         5 IDoV=-2 UseB2=F ITyADJ=14
 ICtDFT= 12500011 ScaDFX=  1.000000  1.000000  1.000000  1.000000
 Largest valence mixing into a core orbital is  5.80D-04
 Largest core mixing into a valence orbital is  6.02D-05
 Range of M.O.s used for correlation:    41   234
 NBasis=   234 NAE=   142 NBE=   142 NFC=    40 NFV=     0
 NROrb=    194 NOA=   102 NOB=   102 NVA=    92 NVB=    92

 **** Warning!!: The smallest alpha delta epsilon is  0.70589302D-01

 Leave Link  801 at Fri Aug 10 23:19:56 2018, MaxMem=  1879048192 cpu:         1.9
 (Enter /share/apps/gaussian/g09_D01/g09/l914.exe)
 RHF ground state
 MDV=  1879048192 DFT=T DoStab=F Mixed=T DoRPA=T DoScal=F NonHer=T
 Would need an additional           395500000 words for in-memory AO integral storage.
 Making orbital integer symmetry assigments:
 Generating guess from checkpoint file densities.
 ***WARNING States NOT converged!! Guess Only.
 ***********************************************************************
 Excited states from <AA,BB:AA,BB> singles matrix:
 ***********************************************************************
 
 1PDM for each excited state written to RWF  633
 Ground to excited state transition densities written to RWF  633
 Ground to excited state transition electric dipole moments (Au):
       state          X           Y           Z        Dip. S.      Osc.
         1        -0.2540     -0.0756      0.1632      0.0968      0.0075
         2        -0.0075      0.0009      0.0027      0.0001      0.0000
         3         8.1450      0.9363     -2.9853     76.1298      7.0867
         4         0.0000     -0.0002     -0.0003      0.0000      0.0000
 Ground to excited state transition velocity dipole moments (Au):
       state          X           Y           Z        Dip. S.      Osc.
         1        -0.0031      0.0460     -0.0344      0.0033      0.0190
         2         0.0007     -0.0007      0.0002      0.0000      0.0000
         3        -0.6086     -0.0678      0.2149      0.4211      2.0106
         4         0.0001      0.0000      0.0000      0.0000      0.0000
 Ground to excited state transition magnetic dipole moments (Au):
       state          X           Y           Z
         1         0.3274      0.0083     -0.0110
         2        -0.3855      0.4207      0.9832
         3        -2.0888      0.0009     -5.9140
         4        -0.4269     -1.3571     -1.4217
 Ground to excited state transition velocity quadrupole moments (Au):
       state          XX          YY          ZZ          XY          XZ          YZ
         1         0.0109     -0.8964     -0.0071      0.0231     -0.0013      0.3418
         2         0.2533     -0.1314     -0.5868     -0.4889      0.2276      0.4739
         3        -0.0024      1.3169      0.0003      5.9128      0.0003     -2.0881
         4         7.7432      0.3872      2.2053      2.3012     -4.3639     -0.9366
 <0|del|b> * <b|rxdel|0> + <0|del|b> * <b|delr+rdel|0>
 Rotatory Strengths (R) in cgs (10**-40 erg-esu-cm/Gauss)
       state          XX          YY          ZZ    R(velocity)    E-M Angle
         1         0.0758     -2.6424      1.1199     -0.4822       90.72
         2        -0.0681      1.2964     -3.3981     -0.7233      106.94
         3        -0.8036      0.8440      0.8568      0.2991       90.00
         4         0.4330     -0.5636     -0.5945     -0.2417      131.46
 1/2[<0|r|b>*<b|rxdel|0> + (<0|rxdel|b>*<b|r|0>)*]
 Rotatory Strengths (R) in cgs (10**-40 erg-esu-cm/Gauss)
       state          XX          YY          ZZ     R(length)
         1        58.7929      0.4450      1.2674     20.1684
         2        -2.0531     -0.2676     -1.9097     -1.4101
         3     12031.1362     -0.6150 -12485.2593   -151.5794
         4        -0.0035     -0.1799     -0.2543     -0.1459
  1/2[<0|del|b>*<b|r|0> + (<0|r|b>*<b|del|0>)*] (Au)
       state          X           Y           Z        Dip. S.   Osc.(frdel)
         1         0.0008     -0.0035     -0.0056      0.0083      0.0055
         2         0.0000      0.0000      0.0000      0.0000      0.0000
         3        -4.9566     -0.0635     -0.6415      5.6616      3.7744
         4         0.0000      0.0000      0.0000      0.0000      0.0000

 Excitation energies and oscillator strengths:
 
 Excited state symmetry could not be determined.
 Excited State   1:      Singlet-?Sym    3.1691 eV  391.22 nm  f=0.0075  <S**2>=0.000
     139 ->144        -0.90980
     139 ->150         0.13196
     139 ->152         0.21672
     139 ->153         0.21824
     140 ->143         0.90830
     140 ->145        -0.11188
     140 ->149         0.13688
     140 ->151        -0.22271
     140 ->154        -0.21710
 This state for optimization and/or second-order correction.
 Total Energy, E(TD-HF/TD-KS) =  0.116464073801    
 Copying the excited state density for this state as the 1-particle RhoCI density.
 
 Excited state symmetry could not be determined.
 Excited State   2:      Singlet-?Sym    3.1692 eV  391.21 nm  f=0.0000  <S**2>=0.000
     139 ->143         0.90838
     139 ->145        -0.11191
     139 ->149         0.13692
     139 ->151        -0.22272
     139 ->154        -0.21714
     140 ->144        -0.91004
     140 ->150         0.13198
     140 ->152         0.21673
     140 ->153         0.21828
 
 Excited state symmetry could not be determined.
 Excited State   3:      Singlet-?Sym    3.7996 eV  326.31 nm  f=7.0867  <S**2>=0.000
     127 ->143         0.13147
     128 ->144        -0.11658
     133 ->144         0.14965
     134 ->143         0.14452
     135 ->144        -0.21286
     136 ->143        -0.22015
     137 ->143         0.76252
     137 ->145        -0.18578
     137 ->154        -0.11587
     138 ->144         0.76485
     138 ->146        -0.16987
     138 ->153        -0.11669
     141 ->143        -0.44668
     142 ->144         0.45502
 
 Excited state symmetry could not be determined.
 Excited State   4:      Singlet-?Sym    3.8307 eV  323.66 nm  f=0.0000  <S**2>=0.000
     127 ->144        -0.12852
     128 ->143         0.12364
     133 ->143        -0.14390
     134 ->144        -0.13032
     135 ->143         0.20179
     136 ->144         0.20357
     137 ->144        -0.75881
     137 ->146         0.16560
     137 ->153         0.11522
     138 ->143        -0.76435
     138 ->145         0.18084
     138 ->154         0.11551
     141 ->144         0.42026
     142 ->143        -0.49863
 SavETr:  write IOETrn=   770 NScale= 10 NData=  16 NLR=1 NState=    4 LETran=      82.
 Leave Link  914 at Fri Aug 10 23:19:56 2018, MaxMem=  1879048192 cpu:         0.3
 (Enter /share/apps/gaussian/g09_D01/g09/l9999.exe)

 This type of calculation cannot be archived.


 IF MATHEMATICALLY YOU END UP WITH THE INCORRECT ANSWER,
 TRY MULTIPLYING BY THE PAGE NUMBER.
 Job cpu time:       0 days  0 hours  0 minutes 11.5 seconds.
 File lengths (MBytes):  RWF=     18 Int=      0 D2E=      0 Chk=     72 Scr=      1
 Normal termination of Gaussian 09 at Fri Aug 10 23:19:56 2018.
