 Entering Gaussian System, Link 0=g09
 Input=H_ap-s2.com
 Output=H_ap-s2.out
 Initial command:
 /share/apps/gaussian/g09_D01/g09/l1.exe "/tmp/4048858.1.chemistry.q/Gau-30447.inp" -scrdir="/tmp/4048858.1.chemistry.q/"
 Entering Link 1 = /share/apps/gaussian/g09_D01/g09/l1.exe PID=     30448.
  
 Copyright (c) 1988,1990,1992,1993,1995,1998,2003,2009,2013,
            Gaussian, Inc.  All Rights Reserved.
  
 This is part of the Gaussian(R) 09 program.  It is based on
 the Gaussian(R) 03 system (copyright 2003, Gaussian, Inc.),
 the Gaussian(R) 98 system (copyright 1998, Gaussian, Inc.),
 the Gaussian(R) 94 system (copyright 1995, Gaussian, Inc.),
 the Gaussian 92(TM) system (copyright 1992, Gaussian, Inc.),
 the Gaussian 90(TM) system (copyright 1990, Gaussian, Inc.),
 the Gaussian 88(TM) system (copyright 1988, Gaussian, Inc.),
 the Gaussian 86(TM) system (copyright 1986, Carnegie Mellon
 University), and the Gaussian 82(TM) system (copyright 1983,
 Carnegie Mellon University). Gaussian is a federally registered
 trademark of Gaussian, Inc.
  
 This software contains proprietary and confidential information,
 including trade secrets, belonging to Gaussian, Inc.
  
 This software is provided under written license and may be
 used, copied, transmitted, or stored only in accord with that
 written license.
  
 The following legend is applicable only to US Government
 contracts under FAR:
  
                    RESTRICTED RIGHTS LEGEND
  
 Use, reproduction and disclosure by the US Government is
 subject to restrictions as set forth in subparagraphs (a)
 and (c) of the Commercial Computer Software - Restricted
 Rights clause in FAR 52.227-19.
  
 Gaussian, Inc.
 340 Quinnipiac St., Bldg. 40, Wallingford CT 06492
  
  
 ---------------------------------------------------------------
 Warning -- This program may not be used in any manner that
 competes with the business of Gaussian, Inc. or will provide
 assistance to any competitor of Gaussian, Inc.  The licensee
 of this program is prohibited from giving any competitor of
 Gaussian, Inc. access to this program.  By using this program,
 the user acknowledges that Gaussian, Inc. is engaged in the
 business of creating and licensing software in the field of
 computational chemistry and represents and warrants to the
 licensee that it is not a competitor of Gaussian, Inc. and that
 it will not use this program in any manner prohibited above.
 ---------------------------------------------------------------
  

 Cite this work as:
 Gaussian 09, Revision D.01,
 M. J. Frisch, G. W. Trucks, H. B. Schlegel, G. E. Scuseria, 
 M. A. Robb, J. R. Cheeseman, G. Scalmani, V. Barone, B. Mennucci, 
 G. A. Petersson, H. Nakatsuji, M. Caricato, X. Li, H. P. Hratchian, 
 A. F. Izmaylov, J. Bloino, G. Zheng, J. L. Sonnenberg, M. Hada, 
 M. Ehara, K. Toyota, R. Fukuda, J. Hasegawa, M. Ishida, T. Nakajima, 
 Y. Honda, O. Kitao, H. Nakai, T. Vreven, J. A. Montgomery, Jr., 
 J. E. Peralta, F. Ogliaro, M. Bearpark, J. J. Heyd, E. Brothers, 
 K. N. Kudin, V. N. Staroverov, T. Keith, R. Kobayashi, J. Normand, 
 K. Raghavachari, A. Rendell, J. C. Burant, S. S. Iyengar, J. Tomasi, 
 M. Cossi, N. Rega, J. M. Millam, M. Klene, J. E. Knox, J. B. Cross, 
 V. Bakken, C. Adamo, J. Jaramillo, R. Gomperts, R. E. Stratmann, 
 O. Yazyev, A. J. Austin, R. Cammi, C. Pomelli, J. W. Ochterski, 
 R. L. Martin, K. Morokuma, V. G. Zakrzewski, G. A. Voth, 
 P. Salvador, J. J. Dannenberg, S. Dapprich, A. D. Daniels, 
 O. Farkas, J. B. Foresman, J. V. Ortiz, J. Cioslowski, 
 and D. J. Fox, Gaussian, Inc., Wallingford CT, 2013.
 
 ******************************************
 Gaussian 09:  ES64L-G09RevD.01 24-Apr-2013
                26-Sep-2017 
 ******************************************
 %chk=H_ap.chk
 %nproc=2
 Will use up to    2 processors via shared memory.
 %mem=14GB
 ----------------------------------------------------------------------
 #p wb97xd 6-31G* nosymm td=(nstates=2) guess=read geom=allcheck densit
 y=(checkpoint,transition=2) pop=saveNTO
 ----------------------------------------------------------------------
 Warning!  Basis set taken from checkpoint file.
 1/29=7,38=1/1;
 2/12=2,15=1,40=1/2;
 3/5=7,6=2,7=1,11=9,14=-4,16=1,25=1,30=1,67=1,74=-58,89=1,116=-2/1,2,8,3;
 4/5=1/1;
 6/7=2,8=2,9=2,10=2,11=2,22=-10,29=2,89=10/1;
 8/6=1,10=1,108=2/1;
 9/41=2,42=1,47=1,70=2/14;
 99/5=2/99;
 Leave Link    1 at Tue Sep 26 18:23:20 2017, MaxMem=  1879048192 cpu:         0.1
 (Enter /share/apps/gaussian/g09_D01/g09/l101.exe)
 Structure from the checkpoint file:  "H_ap.chk"
 -----
 Title
 -----
 Charge =  0 Multiplicity = 1
 Z-Matrix found in file.
 C,0,-2.561045,2.954113,1.800653
 C,0,-1.453614,2.123705,2.11922
 C,0,-2.395118,3.884027,0.746328
 N,0,-3.735091,2.854836,2.478577
 C,0,-0.257335,2.254822,1.452784
 H,0,-1.535511,1.379261,2.89957
 C,0,-1.189555,3.988311,0.088085
 H,0,-3.219319,4.514257,0.441933
 C,0,-3.874215,1.876051,3.53812
 C,0,-4.839077,3.744247,2.165869
 C,0,-0.079646,3.191747,0.417146
 H,0,0.565679,1.610013,1.746085
 H,0,-1.090979,4.710509,-0.716946
 H,0,-3.760779,0.853886,3.155524
 H,0,-4.862027,1.966878,3.986117
 H,0,-3.134539,2.036154,4.330126
 H,0,-4.544216,4.794091,2.272894
 H,0,-5.657968,3.554154,2.859682
 H,0,-5.212008,3.588295,1.147805
 C,0,1.142009,3.334818,-0.334298
 C,0,2.304719,2.65957,-0.162136
 H,0,1.119006,4.060213,-1.147889
 C,0,3.424995,2.888199,-1.059609
 H,0,2.407243,1.928444,0.629659
 C,0,4.730578,2.228227,-0.807332
 O,0,3.297663,3.635176,-2.057585
 C,0,5.784111,2.39456,-1.739495
 C,0,4.979595,1.442845,0.332629
 H,0,4.72778,3.522407,-2.78625
 C,0,7.02529,1.784468,-1.519498
 O,0,5.638602,3.129431,-2.853437
 C,0,6.204812,0.838836,0.543916
 H,0,4.20399,1.302276,1.074422
 C,0,7.231178,1.015415,-0.388505
 H,0,7.813944,1.955377,-2.243553
 H,0,6.367472,0.249632,1.43761
 H,0,8.201859,0.560885,-0.21421
 C,0,2.581379,-2.105893,-1.790351
 C,0,1.469589,-2.925706,-2.114778
 C,0,2.418297,-1.172891,-0.739484
 N,0,3.760702,-2.22074,-2.463536
 C,0,0.275622,-2.797215,-1.441929
 H,0,1.543808,-3.659152,-2.906877
 C,0,1.213161,-1.068453,-0.076918
 H,0,3.239008,-0.532688,-0.440757
 C,0,3.889903,-3.191034,-3.531233
 C,0,4.884294,-1.370986,-2.116734
 C,0,0.103869,-1.867639,-0.400177
 H,0,-0.550023,-3.437858,-1.738482
 H,0,1.11437,-0.338494,0.721184
 H,0,3.768271,-4.218275,-3.164267
 H,0,4.878499,-3.104711,-3.978679
 H,0,3.15148,-3.019964,-4.322237
 H,0,4.641213,-0.309097,-2.246088
 H,0,5.725497,-1.605799,-2.769569
 H,0,5.206196,-1.527935,-1.081389
 C,0,-1.117404,-1.732539,0.361203
 C,0,-2.276353,-2.409923,0.1825
 H,0,-1.091198,-1.015275,1.182031
 C,0,-3.398076,-2.21331,1.090916
 H,0,-2.379263,-3.124101,-0.624627
 C,0,-4.70039,-2.871687,0.825503
 O,0,-3.265917,-1.494962,2.108429
 C,0,-5.76572,-2.700323,1.744545
 C,0,-4.941727,-3.655942,-0.318788
 H,0,-4.711652,-1.603647,2.83003
 C,0,-7.013689,-3.286127,1.498915
 O,0,-5.627792,-1.982401,2.870442
 C,0,-6.169035,-4.248695,-0.546866
 H,0,-4.157788,-3.806279,-1.050026
 C,0,-7.211084,-4.051961,0.365389
 H,0,-7.815385,-3.104576,2.205589
 H,0,-6.322494,-4.844558,-1.438454
 H,0,-8.188118,-4.487504,0.178763
 Recover connectivity data from disk.
 NAtoms=     74 NQM=       74 NQMF=       0 NMMI=      0 NMMIF=      0
                NMic=       0 NMicF=      0.
                    Isotopes and Nuclear Properties:
 (Nuclear quadrupole moments (NQMom) in fm**2, nuclear magnetic moments (NMagM)
  in nuclear magnetons)

  Atom         1           2           3           4           5           6           7           8           9          10
 IAtWgt=          12          12          12          14          12           1          12           1          12          12
 AtmWgt=  12.0000000  12.0000000  12.0000000  14.0030740  12.0000000   1.0078250  12.0000000   1.0078250  12.0000000  12.0000000
 NucSpn=           0           0           0           2           0           1           0           1           0           0
 AtZEff=  -3.6000000  -3.6000000  -3.6000000  -4.5500000  -3.6000000  -1.0000000  -3.6000000  -1.0000000  -3.6000000  -3.6000000
 NQMom=    0.0000000   0.0000000   0.0000000   2.0440000   0.0000000   0.0000000   0.0000000   0.0000000   0.0000000   0.0000000
 NMagM=    0.0000000   0.0000000   0.0000000   0.4037610   0.0000000   2.7928460   0.0000000   2.7928460   0.0000000   0.0000000
 AtZNuc=   6.0000000   6.0000000   6.0000000   7.0000000   6.0000000   1.0000000   6.0000000   1.0000000   6.0000000   6.0000000

  Atom        11          12          13          14          15          16          17          18          19          20
 IAtWgt=          12           1           1           1           1           1           1           1           1          12
 AtmWgt=  12.0000000   1.0078250   1.0078250   1.0078250   1.0078250   1.0078250   1.0078250   1.0078250   1.0078250  12.0000000
 NucSpn=           0           1           1           1           1           1           1           1           1           0
 AtZEff=  -3.6000000  -1.0000000  -1.0000000  -1.0000000  -1.0000000  -1.0000000  -1.0000000  -1.0000000  -1.0000000  -3.6000000
 NQMom=    0.0000000   0.0000000   0.0000000   0.0000000   0.0000000   0.0000000   0.0000000   0.0000000   0.0000000   0.0000000
 NMagM=    0.0000000   2.7928460   2.7928460   2.7928460   2.7928460   2.7928460   2.7928460   2.7928460   2.7928460   0.0000000
 AtZNuc=   6.0000000   1.0000000   1.0000000   1.0000000   1.0000000   1.0000000   1.0000000   1.0000000   1.0000000   6.0000000

  Atom        21          22          23          24          25          26          27          28          29          30
 IAtWgt=          12           1          12           1          12          16          12          12           1          12
 AtmWgt=  12.0000000   1.0078250  12.0000000   1.0078250  12.0000000  15.9949146  12.0000000  12.0000000   1.0078250  12.0000000
 NucSpn=           0           1           0           1           0           0           0           0           1           0
 AtZEff=  -3.6000000  -1.0000000  -3.6000000  -1.0000000  -3.6000000  -5.6000000  -3.6000000  -3.6000000  -1.0000000  -3.6000000
 NQMom=    0.0000000   0.0000000   0.0000000   0.0000000   0.0000000   0.0000000   0.0000000   0.0000000   0.0000000   0.0000000
 NMagM=    0.0000000   2.7928460   0.0000000   2.7928460   0.0000000   0.0000000   0.0000000   0.0000000   2.7928460   0.0000000
 AtZNuc=   6.0000000   1.0000000   6.0000000   1.0000000   6.0000000   8.0000000   6.0000000   6.0000000   1.0000000   6.0000000

  Atom        31          32          33          34          35          36          37          38          39          40
 IAtWgt=          16          12           1          12           1           1           1          12          12          12
 AtmWgt=  15.9949146  12.0000000   1.0078250  12.0000000   1.0078250   1.0078250   1.0078250  12.0000000  12.0000000  12.0000000
 NucSpn=           0           0           1           0           1           1           1           0           0           0
 AtZEff=  -5.6000000  -3.6000000  -1.0000000  -3.6000000  -1.0000000  -1.0000000  -1.0000000  -3.6000000  -3.6000000  -3.6000000
 NQMom=    0.0000000   0.0000000   0.0000000   0.0000000   0.0000000   0.0000000   0.0000000   0.0000000   0.0000000   0.0000000
 NMagM=    0.0000000   0.0000000   2.7928460   0.0000000   2.7928460   2.7928460   2.7928460   0.0000000   0.0000000   0.0000000
 AtZNuc=   8.0000000   6.0000000   1.0000000   6.0000000   1.0000000   1.0000000   1.0000000   6.0000000   6.0000000   6.0000000

  Atom        41          42          43          44          45          46          47          48          49          50
 IAtWgt=          14          12           1          12           1          12          12          12           1           1
 AtmWgt=  14.0030740  12.0000000   1.0078250  12.0000000   1.0078250  12.0000000  12.0000000  12.0000000   1.0078250   1.0078250
 NucSpn=           2           0           1           0           1           0           0           0           1           1
 AtZEff=  -4.5500000  -3.6000000  -1.0000000  -3.6000000  -1.0000000  -3.6000000  -3.6000000  -3.6000000  -1.0000000  -1.0000000
 NQMom=    2.0440000   0.0000000   0.0000000   0.0000000   0.0000000   0.0000000   0.0000000   0.0000000   0.0000000   0.0000000
 NMagM=    0.4037610   0.0000000   2.7928460   0.0000000   2.7928460   0.0000000   0.0000000   0.0000000   2.7928460   2.7928460
 AtZNuc=   7.0000000   6.0000000   1.0000000   6.0000000   1.0000000   6.0000000   6.0000000   6.0000000   1.0000000   1.0000000

  Atom        51          52          53          54          55          56          57          58          59          60
 IAtWgt=           1           1           1           1           1           1          12          12           1          12
 AtmWgt=   1.0078250   1.0078250   1.0078250   1.0078250   1.0078250   1.0078250  12.0000000  12.0000000   1.0078250  12.0000000
 NucSpn=           1           1           1           1           1           1           0           0           1           0
 AtZEff=  -1.0000000  -1.0000000  -1.0000000  -1.0000000  -1.0000000  -1.0000000  -3.6000000  -3.6000000  -1.0000000  -3.6000000
 NQMom=    0.0000000   0.0000000   0.0000000   0.0000000   0.0000000   0.0000000   0.0000000   0.0000000   0.0000000   0.0000000
 NMagM=    2.7928460   2.7928460   2.7928460   2.7928460   2.7928460   2.7928460   0.0000000   0.0000000   2.7928460   0.0000000
 AtZNuc=   1.0000000   1.0000000   1.0000000   1.0000000   1.0000000   1.0000000   6.0000000   6.0000000   1.0000000   6.0000000

  Atom        61          62          63          64          65          66          67          68          69          70
 IAtWgt=           1          12          16          12          12           1          12          16          12           1
 AtmWgt=   1.0078250  12.0000000  15.9949146  12.0000000  12.0000000   1.0078250  12.0000000  15.9949146  12.0000000   1.0078250
 NucSpn=           1           0           0           0           0           1           0           0           0           1
 AtZEff=  -1.0000000  -3.6000000  -5.6000000  -3.6000000  -3.6000000  -1.0000000  -3.6000000  -5.6000000  -3.6000000  -1.0000000
 NQMom=    0.0000000   0.0000000   0.0000000   0.0000000   0.0000000   0.0000000   0.0000000   0.0000000   0.0000000   0.0000000
 NMagM=    2.7928460   0.0000000   0.0000000   0.0000000   0.0000000   2.7928460   0.0000000   0.0000000   0.0000000   2.7928460
 AtZNuc=   1.0000000   6.0000000   8.0000000   6.0000000   6.0000000   1.0000000   6.0000000   8.0000000   6.0000000   1.0000000

  Atom        71          72          73          74
 IAtWgt=          12           1           1           1
 AtmWgt=  12.0000000   1.0078250   1.0078250   1.0078250
 NucSpn=           0           1           1           1
 AtZEff=  -3.6000000  -1.0000000  -1.0000000  -1.0000000
 NQMom=    0.0000000   0.0000000   0.0000000   0.0000000
 NMagM=    0.0000000   2.7928460   2.7928460   2.7928460
 AtZNuc=   6.0000000   1.0000000   1.0000000   1.0000000
 Leave Link  101 at Tue Sep 26 18:23:20 2017, MaxMem=  1879048192 cpu:         0.1
 (Enter /share/apps/gaussian/g09_D01/g09/l202.exe)
 Symmetry turned off by external request.
 Stoichiometry    C34H34N2O4
 Framework group  C1[X(C34H34N2O4)]
 Deg. of freedom   216
 Full point group                 C1      NOp   1
                          Input orientation:                          
 ---------------------------------------------------------------------
 Center     Atomic      Atomic             Coordinates (Angstroms)
 Number     Number       Type             X           Y           Z
 ---------------------------------------------------------------------
      1          6           0       -2.561045    2.954113    1.800653
      2          6           0       -1.453614    2.123705    2.119220
      3          6           0       -2.395118    3.884027    0.746328
      4          7           0       -3.735091    2.854836    2.478577
      5          6           0       -0.257335    2.254822    1.452784
      6          1           0       -1.535511    1.379261    2.899570
      7          6           0       -1.189555    3.988311    0.088085
      8          1           0       -3.219319    4.514257    0.441933
      9          6           0       -3.874215    1.876051    3.538120
     10          6           0       -4.839077    3.744247    2.165869
     11          6           0       -0.079646    3.191747    0.417146
     12          1           0        0.565679    1.610013    1.746085
     13          1           0       -1.090979    4.710509   -0.716946
     14          1           0       -3.760779    0.853886    3.155524
     15          1           0       -4.862027    1.966878    3.986117
     16          1           0       -3.134539    2.036154    4.330126
     17          1           0       -4.544216    4.794091    2.272894
     18          1           0       -5.657968    3.554154    2.859682
     19          1           0       -5.212008    3.588295    1.147805
     20          6           0        1.142009    3.334818   -0.334298
     21          6           0        2.304719    2.659570   -0.162136
     22          1           0        1.119006    4.060213   -1.147889
     23          6           0        3.424995    2.888199   -1.059609
     24          1           0        2.407243    1.928444    0.629659
     25          6           0        4.730578    2.228227   -0.807332
     26          8           0        3.297663    3.635176   -2.057585
     27          6           0        5.784111    2.394560   -1.739495
     28          6           0        4.979595    1.442845    0.332629
     29          1           0        4.727780    3.522407   -2.786250
     30          6           0        7.025290    1.784468   -1.519498
     31          8           0        5.638602    3.129431   -2.853437
     32          6           0        6.204812    0.838836    0.543916
     33          1           0        4.203990    1.302276    1.074422
     34          6           0        7.231178    1.015415   -0.388505
     35          1           0        7.813944    1.955377   -2.243553
     36          1           0        6.367472    0.249632    1.437610
     37          1           0        8.201859    0.560885   -0.214210
     38          6           0        2.581379   -2.105893   -1.790351
     39          6           0        1.469589   -2.925706   -2.114778
     40          6           0        2.418297   -1.172891   -0.739484
     41          7           0        3.760702   -2.220740   -2.463536
     42          6           0        0.275622   -2.797215   -1.441929
     43          1           0        1.543808   -3.659152   -2.906877
     44          6           0        1.213161   -1.068453   -0.076918
     45          1           0        3.239008   -0.532688   -0.440757
     46          6           0        3.889903   -3.191034   -3.531233
     47          6           0        4.884294   -1.370986   -2.116734
     48          6           0        0.103869   -1.867639   -0.400177
     49          1           0       -0.550023   -3.437858   -1.738482
     50          1           0        1.114370   -0.338494    0.721184
     51          1           0        3.768271   -4.218275   -3.164267
     52          1           0        4.878499   -3.104711   -3.978679
     53          1           0        3.151480   -3.019964   -4.322237
     54          1           0        4.641213   -0.309097   -2.246088
     55          1           0        5.725497   -1.605799   -2.769569
     56          1           0        5.206196   -1.527935   -1.081389
     57          6           0       -1.117404   -1.732539    0.361203
     58          6           0       -2.276353   -2.409923    0.182500
     59          1           0       -1.091198   -1.015275    1.182031
     60          6           0       -3.398076   -2.213310    1.090916
     61          1           0       -2.379263   -3.124101   -0.624627
     62          6           0       -4.700390   -2.871687    0.825503
     63          8           0       -3.265917   -1.494962    2.108429
     64          6           0       -5.765720   -2.700323    1.744545
     65          6           0       -4.941727   -3.655942   -0.318788
     66          1           0       -4.711652   -1.603647    2.830030
     67          6           0       -7.013689   -3.286127    1.498915
     68          8           0       -5.627792   -1.982401    2.870442
     69          6           0       -6.169035   -4.248695   -0.546866
     70          1           0       -4.157788   -3.806279   -1.050026
     71          6           0       -7.211084   -4.051961    0.365389
     72          1           0       -7.815385   -3.104576    2.205589
     73          1           0       -6.322494   -4.844558   -1.438454
     74          1           0       -8.188118   -4.487504    0.178763
 ---------------------------------------------------------------------
 Rotational constants (GHZ):      0.1206548      0.0444825      0.0348824
 Leave Link  202 at Tue Sep 26 18:23:20 2017, MaxMem=  1879048192 cpu:         0.0
 (Enter /share/apps/gaussian/g09_D01/g09/l301.exe)
 Basis read from chk: "H_ap.chk" (6D, 7F)
 No pseudopotential information found on chk file.
   668 basis functions,  1256 primitive gaussians,   668 cartesian basis functions
   142 alpha electrons      142 beta electrons
       nuclear repulsion energy      4199.8742183936 Hartrees.
 IExCor= 4639 DFT=T Ex+Corr=wB97XD ExCW=0 ScaHFX=  1.000000
 ScaDFX=  1.000000  1.000000  1.000000  1.000000 ScalE2=  1.000000  1.000000
 IRadAn=      0 IRanWt=     -1 IRanGd=            0 ICorTp=0 IEmpDi=121
  HFx wShort=  0.000000 wLong=  0.200000 cFull=  0.222036 cShort=  0.000000 cLong=  0.777964
  DFx wShort=  0.000000 wLong=  0.200000 cFull=  0.000000 cShort=  0.000000 cLong=  1.000000
 NAtoms=   74 NActive=   74 NUniq=   74 SFac= 1.00D+00 NAtFMM=   60 NAOKFM=T Big=T
 Integral buffers will be    131072 words long.
 Raffenetti 1 integral format.
 Two-electron integral symmetry is turned off.
 R6Disp:  Grimme-D2 Dispersion energy=       -0.0590916611 Hartrees.
 Nuclear repulsion after empirical dispersion term =     4199.8151267325 Hartrees.
 No density basis found on file 20724.
 Leave Link  301 at Tue Sep 26 18:23:20 2017, MaxMem=  1879048192 cpu:         0.1
 (Enter /share/apps/gaussian/g09_D01/g09/l302.exe)
 NPDir=0 NMtPBC=     1 NCelOv=     1 NCel=       1 NClECP=     1 NCelD=      1
         NCelK=      1 NCelE2=     1 NClLst=     1 CellRange=     0.0.
 One-electron integrals computed using PRISM.
 NBasis=   668 RedAO= T EigKep=  3.39D-04  NBF=   668
 NBsUse=   668 1.00D-06 EigRej= -1.00D+00 NBFU=   668
 Precomputing XC quadrature grid using
 IXCGrd= 4 IRadAn=           0 IRanWt=          -1 IRanGd=           0 AccXCQ= 0.00D+00.
 Generated NRdTot=       0 NPtTot=           0 NUsed=           0 NTot=          32
 NSgBfM=   640   640   640   640   640 MxSgAt=    74 MxSgA2=    74.
 Leave Link  302 at Tue Sep 26 18:23:23 2017, MaxMem=  1879048192 cpu:         4.5
 (Enter /share/apps/gaussian/g09_D01/g09/l308.exe)
 Leave Link  308 at Tue Sep 26 18:23:23 2017, MaxMem=  1879048192 cpu:         0.2
 (Enter /share/apps/gaussian/g09_D01/g09/l303.exe)
 DipDrv:  MaxL=1.
 Leave Link  303 at Tue Sep 26 18:23:23 2017, MaxMem=  1879048192 cpu:         0.2
 (Enter /share/apps/gaussian/g09_D01/g09/l401.exe)
 Initial guess from the checkpoint file:  "H_ap.chk"
 B after Tr=     0.000000    0.000000    0.000000
         Rot=    1.000000    0.000000    0.000000    0.000000 Ang=   0.00 deg.
 Guess basis will be translated and rotated to current coordinates.
 JPrj=2 DoOrth=T DoCkMO=T.
 Leave Link  401 at Tue Sep 26 18:23:24 2017, MaxMem=  1879048192 cpu:         2.1
 (Enter /share/apps/gaussian/g09_D01/g09/l601.exe)
 Using densities on the checkpoint file.
 Saving Alpha spin NTOs for state    2 to file 20524.

 **********************************************************************

   Populations using transition density between ground and state  2.

 **********************************************************************

 Alpha  occ. eigenvalues --    0.00000   0.00000   0.00000   0.00000   0.00000
 Alpha  occ. eigenvalues --    0.00000   0.00000   0.00000   0.00000   0.00000
 Alpha  occ. eigenvalues --    0.00000   0.00000   0.00000   0.00000   0.00000
 Alpha  occ. eigenvalues --    0.00000   0.00000   0.00000   0.00000   0.00000
 Alpha  occ. eigenvalues --    0.00000   0.00000   0.00000   0.00000   0.00000
 Alpha  occ. eigenvalues --    0.00000   0.00000   0.00000   0.00000   0.00000
 Alpha  occ. eigenvalues --    0.00000   0.00000   0.00000   0.00000   0.00000
 Alpha  occ. eigenvalues --    0.00000   0.00000   0.00000   0.00000   0.00000
 Alpha  occ. eigenvalues --    0.00000   0.00000   0.00000   0.00000   0.00000
 Alpha  occ. eigenvalues --    0.00000   0.00000   0.00000   0.00000   0.00000
 Alpha  occ. eigenvalues --    0.00000   0.00000   0.00000   0.00000   0.00000
 Alpha  occ. eigenvalues --    0.00000   0.00000   0.00000   0.00001   0.00001
 Alpha  occ. eigenvalues --    0.00001   0.00001   0.00001   0.00001   0.00001
 Alpha  occ. eigenvalues --    0.00001   0.00001   0.00001   0.00001   0.00001
 Alpha  occ. eigenvalues --    0.00001   0.00001   0.00001   0.00001   0.00001
 Alpha  occ. eigenvalues --    0.00002   0.00002   0.00002   0.00002   0.00002
 Alpha  occ. eigenvalues --    0.00002   0.00002   0.00002   0.00002   0.00002
 Alpha  occ. eigenvalues --    0.00003   0.00003   0.00003   0.00003   0.00003
 Alpha  occ. eigenvalues --    0.00004   0.00004   0.00004   0.00004   0.00005
 Alpha  occ. eigenvalues --    0.00005   0.00005   0.00006   0.00006   0.00006
 Alpha  occ. eigenvalues --    0.00007   0.00007   0.00007   0.00007   0.00007
 Alpha  occ. eigenvalues --    0.00008   0.00008   0.00008   0.00009   0.00009
 Alpha  occ. eigenvalues --    0.00010   0.00010   0.00011   0.00011   0.00011
 Alpha  occ. eigenvalues --    0.00012   0.00012   0.00014   0.00014   0.00016
 Alpha  occ. eigenvalues --    0.00017   0.00021   0.00022   0.00026   0.00028
 Alpha  occ. eigenvalues --    0.00032   0.00035   0.00039   0.00048   0.00054
 Alpha  occ. eigenvalues --    0.00055   0.00067   0.00088   0.00091   0.00144
 Alpha  occ. eigenvalues --    0.00175   0.00229   0.00280   0.01703   0.02367
 Alpha  occ. eigenvalues --    0.42739   0.52480
 Alpha virt. eigenvalues --    0.52480   0.42739   0.02367   0.01703   0.00280
 Alpha virt. eigenvalues --    0.00229   0.00175   0.00144   0.00091   0.00088
 Alpha virt. eigenvalues --    0.00067   0.00055   0.00054   0.00048   0.00039
 Alpha virt. eigenvalues --    0.00035   0.00032   0.00028   0.00026   0.00022
 Alpha virt. eigenvalues --    0.00021   0.00017   0.00016   0.00014   0.00014
 Alpha virt. eigenvalues --    0.00012   0.00012   0.00011   0.00011   0.00011
 Alpha virt. eigenvalues --    0.00010   0.00010   0.00009   0.00009   0.00008
 Alpha virt. eigenvalues --    0.00008   0.00008   0.00007   0.00007   0.00007
 Alpha virt. eigenvalues --    0.00007   0.00007   0.00006   0.00006   0.00006
 Alpha virt. eigenvalues --    0.00005   0.00005   0.00005   0.00004   0.00004
 Alpha virt. eigenvalues --    0.00004   0.00004   0.00003   0.00003   0.00003
 Alpha virt. eigenvalues --    0.00003   0.00003   0.00002   0.00002   0.00002
 Alpha virt. eigenvalues --    0.00002   0.00002   0.00002   0.00002   0.00002
 Alpha virt. eigenvalues --    0.00002   0.00002   0.00001   0.00001   0.00001
 Alpha virt. eigenvalues --    0.00001   0.00001   0.00001   0.00001   0.00001
 Alpha virt. eigenvalues --    0.00001   0.00001   0.00001   0.00001   0.00001
 Alpha virt. eigenvalues --    0.00001   0.00001   0.00001   0.00001   0.00000
 Alpha virt. eigenvalues --    0.00000   0.00000   0.00000   0.00000   0.00000
 Alpha virt. eigenvalues --    0.00000   0.00000   0.00000   0.00000   0.00000
 Alpha virt. eigenvalues --    0.00000   0.00000   0.00000   0.00000   0.00000
 Alpha virt. eigenvalues --    0.00000   0.00000   0.00000   0.00000   0.00000
 Alpha virt. eigenvalues --    0.00000   0.00000   0.00000   0.00000   0.00000
 Alpha virt. eigenvalues --    0.00000   0.00000   0.00000   0.00000   0.00000
 Alpha virt. eigenvalues --    0.00000   0.00000   0.00000   0.00000   0.00000
 Alpha virt. eigenvalues --    0.00000   0.00000   0.00000   0.00000   0.00000
 Alpha virt. eigenvalues --    0.00000   0.00000   0.00000   0.00000   0.00000
 Alpha virt. eigenvalues --    0.00000   0.00000   0.00000   0.00000   0.00000
 Alpha virt. eigenvalues --    0.00000   0.00000   0.00000   0.00000   0.00000
 Alpha virt. eigenvalues --    0.00000   0.00000   0.00000   0.00000   0.00000
 Alpha virt. eigenvalues --    0.00000   0.00000   0.00000   0.00000   0.00000
 Alpha virt. eigenvalues --    0.00000   0.00000   0.00000   0.00000   0.00000
 Alpha virt. eigenvalues --    0.00000   0.00000   0.00000   0.00000   0.00000
 Alpha virt. eigenvalues --    0.00000   0.00000   0.00000   0.00000   0.00000
 Alpha virt. eigenvalues --    0.00000   0.00000   0.00000   0.00000   0.00000
 Alpha virt. eigenvalues --    0.00000   0.00000   0.00000   0.00000   0.00000
 Alpha virt. eigenvalues --    0.00000   0.00000   0.00000   0.00000   0.00000
 Alpha virt. eigenvalues --    0.00000   0.00000   0.00000   0.00000   0.00000
 Alpha virt. eigenvalues --    0.00000   0.00000   0.00000   0.00000   0.00000
 Alpha virt. eigenvalues --    0.00000   0.00000   0.00000   0.00000   0.00000
 Alpha virt. eigenvalues --    0.00000   0.00000   0.00000   0.00000   0.00000
 Alpha virt. eigenvalues --    0.00000   0.00000   0.00000   0.00000   0.00000
 Alpha virt. eigenvalues --    0.00000   0.00000   0.00000   0.00000   0.00000
 Alpha virt. eigenvalues --    0.00000   0.00000   0.00000   0.00000   0.00000
 Alpha virt. eigenvalues --    0.00000   0.00000   0.00000   0.00000   0.00000
 Alpha virt. eigenvalues --    0.00000   0.00000   0.00000   0.00000   0.00000
 Alpha virt. eigenvalues --    0.00000   0.00000   0.00000   0.00000   0.00000
 Alpha virt. eigenvalues --    0.00000   0.00000   0.00000   0.00000   0.00000
 Alpha virt. eigenvalues --    0.00000   0.00000   0.00000   0.00000   0.00000
 Alpha virt. eigenvalues --    0.00000   0.00000   0.00000   0.00000   0.00000
 Alpha virt. eigenvalues --    0.00000   0.00000   0.00000   0.00000   0.00000
 Alpha virt. eigenvalues --    0.00000   0.00000   0.00000   0.00000   0.00000
 Alpha virt. eigenvalues --    0.00000   0.00000   0.00000   0.00000   0.00000
 Alpha virt. eigenvalues --    0.00000   0.00000   0.00000   0.00000   0.00000
 Alpha virt. eigenvalues --    0.00000   0.00000   0.00000   0.00000   0.00000
 Alpha virt. eigenvalues --    0.00000   0.00000   0.00000   0.00000   0.00000
 Alpha virt. eigenvalues --    0.00000   0.00000   0.00000   0.00000   0.00000
 Alpha virt. eigenvalues --    0.00000   0.00000   0.00000   0.00000   0.00000
 Alpha virt. eigenvalues --    0.00000   0.00000   0.00000   0.00000   0.00000
 Alpha virt. eigenvalues --    0.00000   0.00000   0.00000   0.00000   0.00000
 Alpha virt. eigenvalues --    0.00000   0.00000   0.00000   0.00000   0.00000
 Alpha virt. eigenvalues --    0.00000   0.00000   0.00000   0.00000   0.00000
 Alpha virt. eigenvalues --    0.00000   0.00000   0.00000   0.00000   0.00000
 Alpha virt. eigenvalues --    0.00000   0.00000   0.00000   0.00000   0.00000
 Alpha virt. eigenvalues --    0.00000   0.00000   0.00000   0.00000   0.00000
 Alpha virt. eigenvalues --    0.00000   0.00000   0.00000   0.00000   0.00000
 Alpha virt. eigenvalues --    0.00000   0.00000   0.00000   0.00000   0.00000
 Alpha virt. eigenvalues --    0.00000   0.00000   0.00000   0.00000   0.00000
 Alpha virt. eigenvalues --    0.00000   0.00000   0.00000   0.00000   0.00000
 Alpha virt. eigenvalues --    0.00000   0.00000   0.00000   0.00000   0.00000
 Alpha virt. eigenvalues --    0.00000   0.00000   0.00000   0.00000   0.00000
 Alpha virt. eigenvalues --    0.00000   0.00000   0.00000   0.00000   0.00000
 Alpha virt. eigenvalues --    0.00000   0.00000   0.00000   0.00000   0.00000
 Alpha virt. eigenvalues --    0.00000   0.00000   0.00000   0.00000   0.00000
 Alpha virt. eigenvalues --    0.00000   0.00000   0.00000   0.00000   0.00000
 Alpha virt. eigenvalues --    0.00000   0.00000   0.00000   0.00000   0.00000
 Alpha virt. eigenvalues --    0.00000   0.00000   0.00000   0.00000   0.00000
 Alpha virt. eigenvalues --    0.00000   0.00000   0.00000   0.00000   0.00000
 Alpha virt. eigenvalues --    0.00000   0.00000   0.00000   0.00000   0.00000
 Alpha virt. eigenvalues --    0.00000   0.00000   0.00000   0.00000   0.00000
 Alpha virt. eigenvalues --    0.00000   0.00000   0.00000   0.00000   0.00000
 Alpha virt. eigenvalues --    0.00000   0.00000   0.00000   0.00000   0.00000
 Alpha virt. eigenvalues --    0.00000   0.00000   0.00000   0.00000   0.00000
 Alpha virt. eigenvalues --    0.00000   0.00000   0.00000   0.00000   0.00000
 Alpha virt. eigenvalues --    0.00000   0.00000   0.00000   0.00000   0.00000
 Alpha virt. eigenvalues --    0.00000   0.00000   0.00000   0.00000   0.00000
 Alpha virt. eigenvalues --    0.00000   0.00000   0.00000   0.00000   0.00000
 Alpha virt. eigenvalues --    0.00000   0.00000   0.00000   0.00000   0.00000
 Alpha virt. eigenvalues --    0.00000   0.00000   0.00000   0.00000   0.00000
 Alpha virt. eigenvalues --    0.00000   0.00000   0.00000   0.00000   0.00000
 Alpha virt. eigenvalues --    0.00000   0.00000   0.00000   0.00000   0.00000
 Alpha virt. eigenvalues --    0.00000   0.00000   0.00000   0.00000   0.00000
 Alpha virt. eigenvalues --    0.00000   0.00000   0.00000   0.00000   0.00000
 Alpha virt. eigenvalues --    0.00000   0.00000   0.00000   0.00000   0.00000
 Alpha virt. eigenvalues --    0.00000   0.00000   0.00000   0.00000   0.00000
 Alpha virt. eigenvalues --    0.00000   0.00000   0.00000   0.00000   0.00000
 Alpha virt. eigenvalues --    0.00000   0.00000   0.00000   0.00000   0.00000
 Alpha virt. eigenvalues --    0.00000   0.00000   0.00000   0.00000   0.00000
 Alpha virt. eigenvalues --    0.00000   0.00000   0.00000   0.00000   0.00000
 Alpha virt. eigenvalues --    0.00000   0.00000   0.00000   0.00000   0.00000
 Alpha virt. eigenvalues --    0.00000   0.00000   0.00000   0.00000   0.00000
 Alpha virt. eigenvalues --    0.00000   0.00000   0.00000   0.00000   0.00000
 Alpha virt. eigenvalues --    0.00000   0.00000   0.00000   0.00000   0.00000
 Alpha virt. eigenvalues --    0.00000   0.00000   0.00000   0.00000   0.00000
 Alpha virt. eigenvalues --    0.00000   0.00000   0.00000   0.00000   0.00000
 Alpha virt. eigenvalues --    0.00000   0.00000   0.00000   0.00000   0.00000
 Alpha virt. eigenvalues --    0.00000
          Condensed to atoms (all electrons):
 Mulliken charges:
               1
     1  C    6.030564
     2  C    5.989000
     3  C    5.980228
     4  N    7.018685
     5  C    6.038325
     6  H    1.007524
     7  C    6.031264
     8  H    1.005790
     9  C    5.985733
    10  C    5.982411
    11  C    5.960267
    12  H    1.037750
    13  H    1.021887
    14  H    1.009436
    15  H    1.013902
    16  H    1.028724
    17  H    1.026839
    18  H    1.012815
    19  H    1.022609
    20  C    6.036383
    21  C    5.947874
    22  H    1.004049
    23  C    5.988487
    24  H    0.976252
    25  C    6.022948
    26  O    7.957787
    27  C    5.984272
    28  C    5.997498
    29  H    0.991073
    30  C    5.996575
    31  O    7.975200
    32  C    6.006284
    33  H    0.981639
    34  C    5.989669
    35  H    0.979975
    36  H    0.980549
    37  H    0.977287
    38  C    5.964679
    39  C    6.010534
    40  C    6.023020
    41  N    6.979673
    42  C    5.961313
    43  H    0.985865
    44  C    5.965925
    45  H    1.004878
    46  C    6.021967
    47  C    6.015669
    48  C    6.047025
    49  H    0.961998
    50  H    0.969845
    51  H    0.970376
    52  H    0.984155
    53  H    0.971841
    54  H    0.985295
    55  H    0.983827
    56  H    0.976796
    57  C    5.956410
    58  C    6.061374
    59  H    0.983981
    60  C    6.009648
    61  H    1.030538
    62  C    5.977328
    63  O    8.030596
    64  C    6.021246
    65  C    6.005450
    66  H    1.006290
    67  C    6.005347
    68  O    8.026524
    69  C    5.997552
    70  H    1.020961
    71  C    6.016169
    72  H    1.020514
    73  H    1.022151
    74  H    1.025685
 Sum of Mulliken charges = 284.00000
 Mulliken charges with hydrogens summed into heavy atoms:
               1
     1  C    6.030564
     2  C    6.996524
     3  C    6.986019
     4  N    7.018685
     5  C    7.076076
     7  C    7.053152
     9  C    9.037796
    10  C    9.044674
    11  C    5.960267
    20  C    7.040431
    21  C    6.924126
    23  C    5.988487
    25  C    6.022948
    26  O    7.957787
    27  C    5.984272
    28  C    6.979136
    30  C    6.976550
    31  O    8.966273
    32  C    6.986833
    34  C    6.966956
    38  C    5.964679
    39  C    6.996400
    40  C    7.027898
    41  N    6.979673
    42  C    6.923310
    44  C    6.935769
    46  C    8.948339
    47  C    8.961587
    48  C    6.047025
    57  C    6.940391
    58  C    7.091912
    60  C    6.009648
    62  C    5.977328
    63  O    8.030596
    64  C    6.021246
    65  C    7.026411
    67  C    7.025861
    68  O    9.032814
    69  C    7.019703
    71  C    7.041854
 Electronic spatial extent (au):  <R**2>=             -7.8091
 Charge=              0.0000 electrons
 Dipole moment (field-independent basis, Debye):
    X=            -16.4686    Y=             -0.2773    Z=              6.3208  Tot=             17.6421
 Quadrupole moment (field-independent basis, Debye-Ang):
   XX=              4.0944   YY=              7.1024   ZZ=             -0.6933
   XY=              6.6819   XZ=              0.5219   YZ=              0.4307
 Traceless Quadrupole moment (field-independent basis, Debye-Ang):
   XX=              0.5932   YY=              3.6013   ZZ=             -4.1945
   XY=              6.6819   XZ=              0.5219   YZ=              0.4307
 Octapole moment (field-independent basis, Debye-Ang**2):
  XXX=           -529.2551  YYY=             -5.6648  ZZZ=             62.4306  XYY=           -156.8668
  XXY=           -118.2659  XXZ=            116.5184  XZZ=            -80.5991  YZZ=             16.6096
  YYZ=             54.0282  XYZ=             -7.0727
 Hexadecapole moment (field-independent basis, Debye-Ang**3):
 XXXX=            215.4551 YYYY=            195.9829 ZZZZ=             -7.9452 XXXY=            449.2768
 XXXZ=             -4.2269 YYYX=            144.5405 YYYZ=             19.1206 ZZZX=              6.7151
 ZZZY=             -7.5258 XXYY=            356.9483 XXZZ=             -1.2705 YYZZ=            -19.6310
 XXYZ=             22.1450 YYXZ=             26.5258 ZZXY=              6.9818
 N-N= 4.199815126732D+03 E-N=-4.041822069396D-01  KE= 4.744896624280D-04
 Leave Link  601 at Tue Sep 26 18:23:25 2017, MaxMem=  1879048192 cpu:         1.0
 (Enter /share/apps/gaussian/g09_D01/g09/l801.exe)
 DoSCS=F DFT=T ScalE2(SS,OS)=  1.000000  1.000000
 ExpMin= 1.61D-01 ExpMax= 5.48D+03 ExpMxC= 8.25D+02 IAcc=3 IRadAn=         5 AccDes= 0.00D+00
 HarFok:  IExCor=  205 AccDes= 0.00D+00 IRadAn=         5 IDoV=-2 UseB2=F ITyADJ=14
 ICtDFT= 12500011 ScaDFX=  1.000000  1.000000  1.000000  1.000000
 Largest valence mixing into a core orbital is  6.70D-05
 Largest core mixing into a valence orbital is  1.20D-05
 Range of M.O.s used for correlation:    41   668
 NBasis=   668 NAE=   142 NBE=   142 NFC=    40 NFV=     0
 NROrb=    628 NOA=   102 NOB=   102 NVA=   526 NVB=   526
 Leave Link  801 at Tue Sep 26 18:23:26 2017, MaxMem=  1879048192 cpu:         2.1
 (Enter /share/apps/gaussian/g09_D01/g09/l914.exe)
 RHF ground state
 MDV=  1879048192 DFT=T DoStab=F Mixed=T DoRPA=T DoScal=F NonHer=T
 Would need an additional        148055700000 words for in-memory AO integral storage.
 Making orbital integer symmetry assigments:
     8 initial guesses have been made.
 ***WARNING States NOT converged!! Guess Only.
 ***********************************************************************
 Excited states from <AA,BB:AA,BB> singles matrix:
 ***********************************************************************
 
 1PDM for each excited state written to RWF  633
 Ground to excited state transition densities written to RWF  633
 Ground to excited state transition electric dipole moments (Au):
       state          X           Y           Z        Dip. S.      Osc.
         1         2.5254     -0.1517     -1.1103      7.6337      0.0000
         2         2.8401     -0.0102     -1.2723      9.6850      0.0000
 Ground to excited state transition velocity dipole moments (Au):
       state          X           Y           Z        Dip. S.      Osc.
         1         0.0000      0.0000      0.0000      0.0000         Inf
         2         0.0000      0.0000      0.0000      0.0000         Inf
 Ground to excited state transition magnetic dipole moments (Au):
       state          X           Y           Z
         1         0.0000      0.0000      0.0000
         2         0.0000      0.0000      0.0000
 Ground to excited state transition velocity quadrupole moments (Au):
       state          XX          YY          ZZ          XY          XZ          YZ
         1         0.0000      0.0000      0.0000      0.0000      0.0000      0.0000
         2         0.0000      0.0000      0.0000      0.0000      0.0000      0.0000
 <0|del|b> * <b|rxdel|0> + <0|del|b> * <b|delr+rdel|0>
 Rotatory Strengths (R) in cgs (10**-40 erg-esu-cm/Gauss)
       state          XX          YY          ZZ    R(velocity)    E-M Angle
         1            NaN         NaN         NaN         NaN       90.00
         2            Inf         NaN         Inf         NaN       90.00
 1/2[<0|r|b>*<b|rxdel|0> + (<0|rxdel|b>*<b|r|0>)*]
 Rotatory Strengths (R) in cgs (10**-40 erg-esu-cm/Gauss)
       state          XX          YY          ZZ     R(length)
         1         0.0000      0.0000      0.0000      0.0000
         2         0.0000      0.0000      0.0000      0.0000
  1/2[<0|del|b>*<b|r|0> + (<0|r|b>*<b|del|0>)*] (Au)
       state          X           Y           Z        Dip. S.   Osc.(frdel)
         1         0.0000      0.0000      0.0000      0.0000      0.0000
         2         0.0000      0.0000      0.0000      0.0000      0.0000

 Excitation energies and oscillator strengths:
 
 Excited state symmetry could not be determined.
 Excited State   1:      Singlet-?Sym    0.0000 eV    0.00 nm  f=0.0000  <S**2>=0.000
     142 ->143         0.35355
     142 <-143         0.35355
 This state for optimization and/or second-order correction.
 Total Energy, E(TD-HF/TD-KS) =  0.000000000000E+00
 Copying the excited state density for this state as the 1-particle RhoCI density.
 
 Excited state symmetry could not be determined.
 Excited State   2:      Singlet-?Sym    0.0000 eV    0.00 nm  f=0.0000  <S**2>=0.000
     141 ->143         0.35355
     141 <-143         0.35355
 SavETr:  write IOETrn=   770 NScale= 10 NData=  16 NLR=1 NState=    8 LETran=     154.
 Leave Link  914 at Tue Sep 26 18:23:29 2017, MaxMem=  1879048192 cpu:         5.7
 (Enter /share/apps/gaussian/g09_D01/g09/l9999.exe)

 This type of calculation cannot be archived.


 MAN IS A SINGULAR CREATURE.  HE HAS A SET OF GIFTS
 WHICH MAKE HIM UNIQUE AMONG THE ANIMALS: SO THAT, 
 UNLIKE THEM, HE IS NOT A FIGURE IN THE LANDSCAPE --
 HE IS A SHAPER OF THE LANDSCAPE.

                       -- JACOB BRONOWSKI
 Job cpu time:       0 days  0 hours  0 minutes 16.3 seconds.
 File lengths (MBytes):  RWF=    157 Int=      0 D2E=      0 Chk=     52 Scr=      1
 Normal termination of Gaussian 09 at Tue Sep 26 18:23:29 2017.
