 Entering Gaussian System, Link 0=g09
 Input=2hc_1_rel-mega_dimer_0_NTO_s2.com
 Output=2hc_1_rel-mega_dimer_0_NTO_s2.log
 Initial command:
 /share/apps/gaussian/g09_D01/g09/l1.exe "/tmp/385921.1.all.q/Gau-20375.inp" -scrdir="/tmp/385921.1.all.q/"
 Default is to use a total of   4 processors:
                                4 via shared-memory
                                1 via Linda
 Entering Link 1 = /share/apps/gaussian/g09_D01/g09/l1.exe PID=     20376.
  
 Copyright (c) 1988,1990,1992,1993,1995,1998,2003,2009,2013,
            Gaussian, Inc.  All Rights Reserved.
  
 This is part of the Gaussian(R) 09 program.  It is based on
 the Gaussian(R) 03 system (copyright 2003, Gaussian, Inc.),
 the Gaussian(R) 98 system (copyright 1998, Gaussian, Inc.),
 the Gaussian(R) 94 system (copyright 1995, Gaussian, Inc.),
 the Gaussian 92(TM) system (copyright 1992, Gaussian, Inc.),
 the Gaussian 90(TM) system (copyright 1990, Gaussian, Inc.),
 the Gaussian 88(TM) system (copyright 1988, Gaussian, Inc.),
 the Gaussian 86(TM) system (copyright 1986, Carnegie Mellon
 University), and the Gaussian 82(TM) system (copyright 1983,
 Carnegie Mellon University). Gaussian is a federally registered
 trademark of Gaussian, Inc.
  
 This software contains proprietary and confidential information,
 including trade secrets, belonging to Gaussian, Inc.
  
 This software is provided under written license and may be
 used, copied, transmitted, or stored only in accord with that
 written license.
  
 The following legend is applicable only to US Government
 contracts under FAR:
  
                    RESTRICTED RIGHTS LEGEND
  
 Use, reproduction and disclosure by the US Government is
 subject to restrictions as set forth in subparagraphs (a)
 and (c) of the Commercial Computer Software - Restricted
 Rights clause in FAR 52.227-19.
  
 Gaussian, Inc.
 340 Quinnipiac St., Bldg. 40, Wallingford CT 06492
  
  
 ---------------------------------------------------------------
 Warning -- This program may not be used in any manner that
 competes with the business of Gaussian, Inc. or will provide
 assistance to any competitor of Gaussian, Inc.  The licensee
 of this program is prohibited from giving any competitor of
 Gaussian, Inc. access to this program.  By using this program,
 the user acknowledges that Gaussian, Inc. is engaged in the
 business of creating and licensing software in the field of
 computational chemistry and represents and warrants to the
 licensee that it is not a competitor of Gaussian, Inc. and that
 it will not use this program in any manner prohibited above.
 ---------------------------------------------------------------
  

 Cite this work as:
 Gaussian 09, Revision D.01,
 M. J. Frisch, G. W. Trucks, H. B. Schlegel, G. E. Scuseria, 
 M. A. Robb, J. R. Cheeseman, G. Scalmani, V. Barone, B. Mennucci, 
 G. A. Petersson, H. Nakatsuji, M. Caricato, X. Li, H. P. Hratchian, 
 A. F. Izmaylov, J. Bloino, G. Zheng, J. L. Sonnenberg, M. Hada, 
 M. Ehara, K. Toyota, R. Fukuda, J. Hasegawa, M. Ishida, T. Nakajima, 
 Y. Honda, O. Kitao, H. Nakai, T. Vreven, J. A. Montgomery, Jr., 
 J. E. Peralta, F. Ogliaro, M. Bearpark, J. J. Heyd, E. Brothers, 
 K. N. Kudin, V. N. Staroverov, T. Keith, R. Kobayashi, J. Normand, 
 K. Raghavachari, A. Rendell, J. C. Burant, S. S. Iyengar, J. Tomasi, 
 M. Cossi, N. Rega, J. M. Millam, M. Klene, J. E. Knox, J. B. Cross, 
 V. Bakken, C. Adamo, J. Jaramillo, R. Gomperts, R. E. Stratmann, 
 O. Yazyev, A. J. Austin, R. Cammi, C. Pomelli, J. W. Ochterski, 
 R. L. Martin, K. Morokuma, V. G. Zakrzewski, G. A. Voth, 
 P. Salvador, J. J. Dannenberg, S. Dapprich, A. D. Daniels, 
 O. Farkas, J. B. Foresman, J. V. Ortiz, J. Cioslowski, 
 and D. J. Fox, Gaussian, Inc., Wallingford CT, 2013.
 
 ******************************************
 Gaussian 09:  ES64L-G09RevD.01 24-Apr-2013
                10-Aug-2018 
 ******************************************
 %chk=2hc_1_rel-mega_dimer_0.chk
 %nproc=2
 Will use up to    2 processors via shared memory.
 %mem=14GB
 ----------------------------------------------------------------------
 #p wb97xd STO-3G Pop=NTO Density=(Check,Transition=2) geom=allcheck no
 symm
 ----------------------------------------------------------------------
 Warning!  Basis set taken from checkpoint file.
 1/29=7,38=1/1;
 2/12=2,15=1,40=1/2;
 3/5=7,6=2,11=2,14=-4,16=1,25=1,30=1,67=1,74=-58,89=1/1,2,3;
 4//1;
 6/7=2,8=2,9=2,10=2,11=2,22=-10,28=1,29=2,89=1/1;
 99/5=2/99;
 Leave Link    1 at Fri Aug 10 23:23:25 2018, MaxMem=  1879048192 cpu:         0.1
 (Enter /share/apps/gaussian/g09_D01/g09/l101.exe)
 Structure from the checkpoint file:  "2hc_1_rel-mega_dimer_0.chk"
 -----
 Title
 -----
 Charge =  0 Multiplicity = 1
 Z-Matrix found in file.
 C,0,-0.045604,-3.212643,-0.673042
 C,0,-1.163557,-4.037551,-0.999057
 H,0,-0.121291,-2.475288,0.121883
 C,0,1.146608,-3.335524,-1.348586
 C,0,-0.997931,-4.974953,-2.055672
 N,0,-2.337452,-3.93316,-0.324579
 C,0,1.320601,-4.270503,-2.399224
 H,0,1.971105,-2.682196,-1.060472
 C,0,0.202155,-5.074774,-2.725295
 H,0,-1.826104,-5.611893,-2.356233
 C,0,-3.451039,-4.817588,-0.638286
 C,0,-2.482782,-2.951131,0.738607
 C,0,2.5213,-4.396929,-3.164451
 H,0,0.299534,-5.792287,-3.54133
 H,0,-3.150286,-5.872565,-0.549647
 H,0,-4.268925,-4.626441,0.063239
 H,0,-3.818958,-4.648925,-1.662177
 H,0,-2.290162,-1.933406,0.365237
 H,0,-3.502453,-2.991283,1.132588
 H,0,-1.783201,-3.152381,1.563457
 C,0,3.704177,-3.730044,-2.976341
 H,0,2.47843,-5.091951,-4.010014
 C,0,4.824246,-3.904072,-3.862622
 H,0,3.810173,-3.042685,-2.139497
 C,0,6.116034,-3.241308,-3.594826
 O,0,4.72679,-4.644034,-4.908669
 C,0,7.196441,-3.444502,-4.505463
 C,0,6.35306,-2.418884,-2.472996
 H,0,6.047681,-4.528914,-5.530262
 C,0,8.44931,-2.862065,-4.256098
 O,0,7.039043,-4.198267,-5.611204
 C,0,7.588797,-1.834009,-2.241935
 H,0,5.552651,-2.221827,-1.761605
 C,0,8.641937,-2.065551,-3.137064
 H,0,9.257308,-3.069135,-4.95777
 H,0,7.737617,-1.196134,-1.371176
 H,0,9.619574,-1.619592,-2.947297
 C,0,-7.196442,-6.840499,4.505462
 C,0,-8.449309,-7.422935,4.256097
 C,0,-6.116034,-7.043692,3.594826
 O,0,-7.039043,-6.086733,5.611203
 C,0,-8.641938,-8.219449,3.137063
 H,0,-9.257309,-7.215866,4.95777
 C,0,-6.35306,-7.866116,2.472996
 C,0,-4.824246,-6.380928,3.862622
 H,0,-6.04768,-5.756085,5.530263
 C,0,-7.588796,-8.45099,2.241936
 H,0,-9.619575,-8.665408,2.947296
 H,0,-5.552651,-8.063173,1.761606
 C,0,-3.704178,-6.554956,2.976342
 O,0,-4.72679,-5.640966,4.908668
 H,0,-7.737618,-9.088866,1.371175
 C,0,-2.5213,-5.888071,3.164452
 H,0,-3.810174,-7.242315,2.139497
 C,0,-1.320601,-6.014497,2.399224
 H,0,-2.47843,-5.193048,4.010013
 C,0,-1.146607,-6.949476,1.348586
 C,0,-0.202155,-5.210226,2.725294
 H,0,-1.971105,-7.602804,1.060473
 C,0,0.045604,-7.072357,0.673042
 C,0,0.99793,-5.310047,2.055673
 H,0,-0.299533,-4.492713,3.54133
 C,0,1.163557,-6.247449,0.999056
 H,0,0.121292,-7.809712,-0.121883
 H,0,1.826104,-4.673106,2.356233
 N,0,2.337452,-6.351839,0.324578
 C,0,2.482783,-7.333867,-0.738608
 C,0,3.451039,-5.467412,0.638287
 H,0,2.290163,-8.351594,-0.365237
 H,0,3.502452,-7.293717,-1.132587
 H,0,1.783202,-7.13262,-1.563458
 H,0,3.150286,-4.412434,0.549647
 H,0,4.268925,-5.658559,-0.063239
 H,0,3.818959,-5.636076,1.662178
 Recover connectivity data from disk.
 NAtoms=     74 NQM=       74 NQMF=       0 NMMI=      0 NMMIF=      0
                NMic=       0 NMicF=      0.
                    Isotopes and Nuclear Properties:
 (Nuclear quadrupole moments (NQMom) in fm**2, nuclear magnetic moments (NMagM)
  in nuclear magnetons)

  Atom         1           2           3           4           5           6           7           8           9          10
 IAtWgt=          12          12           1          12          12          14          12           1          12           1
 AtmWgt=  12.0000000  12.0000000   1.0078250  12.0000000  12.0000000  14.0030740  12.0000000   1.0078250  12.0000000   1.0078250
 NucSpn=           0           0           1           0           0           2           0           1           0           1
 AtZEff=  -3.6000000  -3.6000000  -1.0000000  -3.6000000  -3.6000000  -4.5500000  -3.6000000  -1.0000000  -3.6000000  -1.0000000
 NQMom=    0.0000000   0.0000000   0.0000000   0.0000000   0.0000000   2.0440000   0.0000000   0.0000000   0.0000000   0.0000000
 NMagM=    0.0000000   0.0000000   2.7928460   0.0000000   0.0000000   0.4037610   0.0000000   2.7928460   0.0000000   2.7928460
 AtZNuc=   6.0000000   6.0000000   1.0000000   6.0000000   6.0000000   7.0000000   6.0000000   1.0000000   6.0000000   1.0000000

  Atom        11          12          13          14          15          16          17          18          19          20
 IAtWgt=          12          12          12           1           1           1           1           1           1           1
 AtmWgt=  12.0000000  12.0000000  12.0000000   1.0078250   1.0078250   1.0078250   1.0078250   1.0078250   1.0078250   1.0078250
 NucSpn=           0           0           0           1           1           1           1           1           1           1
 AtZEff=  -3.6000000  -3.6000000  -3.6000000  -1.0000000  -1.0000000  -1.0000000  -1.0000000  -1.0000000  -1.0000000  -1.0000000
 NQMom=    0.0000000   0.0000000   0.0000000   0.0000000   0.0000000   0.0000000   0.0000000   0.0000000   0.0000000   0.0000000
 NMagM=    0.0000000   0.0000000   0.0000000   2.7928460   2.7928460   2.7928460   2.7928460   2.7928460   2.7928460   2.7928460
 AtZNuc=   6.0000000   6.0000000   6.0000000   1.0000000   1.0000000   1.0000000   1.0000000   1.0000000   1.0000000   1.0000000

  Atom        21          22          23          24          25          26          27          28          29          30
 IAtWgt=          12           1          12           1          12          16          12          12           1          12
 AtmWgt=  12.0000000   1.0078250  12.0000000   1.0078250  12.0000000  15.9949146  12.0000000  12.0000000   1.0078250  12.0000000
 NucSpn=           0           1           0           1           0           0           0           0           1           0
 AtZEff=  -3.6000000  -1.0000000  -3.6000000  -1.0000000  -3.6000000  -5.6000000  -3.6000000  -3.6000000  -1.0000000  -3.6000000
 NQMom=    0.0000000   0.0000000   0.0000000   0.0000000   0.0000000   0.0000000   0.0000000   0.0000000   0.0000000   0.0000000
 NMagM=    0.0000000   2.7928460   0.0000000   2.7928460   0.0000000   0.0000000   0.0000000   0.0000000   2.7928460   0.0000000
 AtZNuc=   6.0000000   1.0000000   6.0000000   1.0000000   6.0000000   8.0000000   6.0000000   6.0000000   1.0000000   6.0000000

  Atom        31          32          33          34          35          36          37          38          39          40
 IAtWgt=          16          12           1          12           1           1           1          12          12          12
 AtmWgt=  15.9949146  12.0000000   1.0078250  12.0000000   1.0078250   1.0078250   1.0078250  12.0000000  12.0000000  12.0000000
 NucSpn=           0           0           1           0           1           1           1           0           0           0
 AtZEff=  -5.6000000  -3.6000000  -1.0000000  -3.6000000  -1.0000000  -1.0000000  -1.0000000  -3.6000000  -3.6000000  -3.6000000
 NQMom=    0.0000000   0.0000000   0.0000000   0.0000000   0.0000000   0.0000000   0.0000000   0.0000000   0.0000000   0.0000000
 NMagM=    0.0000000   0.0000000   2.7928460   0.0000000   2.7928460   2.7928460   2.7928460   0.0000000   0.0000000   0.0000000
 AtZNuc=   8.0000000   6.0000000   1.0000000   6.0000000   1.0000000   1.0000000   1.0000000   6.0000000   6.0000000   6.0000000

  Atom        41          42          43          44          45          46          47          48          49          50
 IAtWgt=          16          12           1          12          12           1          12           1           1          12
 AtmWgt=  15.9949146  12.0000000   1.0078250  12.0000000  12.0000000   1.0078250  12.0000000   1.0078250   1.0078250  12.0000000
 NucSpn=           0           0           1           0           0           1           0           1           1           0
 AtZEff=  -5.6000000  -3.6000000  -1.0000000  -3.6000000  -3.6000000  -1.0000000  -3.6000000  -1.0000000  -1.0000000  -3.6000000
 NQMom=    0.0000000   0.0000000   0.0000000   0.0000000   0.0000000   0.0000000   0.0000000   0.0000000   0.0000000   0.0000000
 NMagM=    0.0000000   0.0000000   2.7928460   0.0000000   0.0000000   2.7928460   0.0000000   2.7928460   2.7928460   0.0000000
 AtZNuc=   8.0000000   6.0000000   1.0000000   6.0000000   6.0000000   1.0000000   6.0000000   1.0000000   1.0000000   6.0000000

  Atom        51          52          53          54          55          56          57          58          59          60
 IAtWgt=          16           1          12           1          12           1          12          12           1          12
 AtmWgt=  15.9949146   1.0078250  12.0000000   1.0078250  12.0000000   1.0078250  12.0000000  12.0000000   1.0078250  12.0000000
 NucSpn=           0           1           0           1           0           1           0           0           1           0
 AtZEff=  -5.6000000  -1.0000000  -3.6000000  -1.0000000  -3.6000000  -1.0000000  -3.6000000  -3.6000000  -1.0000000  -3.6000000
 NQMom=    0.0000000   0.0000000   0.0000000   0.0000000   0.0000000   0.0000000   0.0000000   0.0000000   0.0000000   0.0000000
 NMagM=    0.0000000   2.7928460   0.0000000   2.7928460   0.0000000   2.7928460   0.0000000   0.0000000   2.7928460   0.0000000
 AtZNuc=   8.0000000   1.0000000   6.0000000   1.0000000   6.0000000   1.0000000   6.0000000   6.0000000   1.0000000   6.0000000

  Atom        61          62          63          64          65          66          67          68          69          70
 IAtWgt=          12           1          12           1           1          14          12          12           1           1
 AtmWgt=  12.0000000   1.0078250  12.0000000   1.0078250   1.0078250  14.0030740  12.0000000  12.0000000   1.0078250   1.0078250
 NucSpn=           0           1           0           1           1           2           0           0           1           1
 AtZEff=  -3.6000000  -1.0000000  -3.6000000  -1.0000000  -1.0000000  -4.5500000  -3.6000000  -3.6000000  -1.0000000  -1.0000000
 NQMom=    0.0000000   0.0000000   0.0000000   0.0000000   0.0000000   2.0440000   0.0000000   0.0000000   0.0000000   0.0000000
 NMagM=    0.0000000   2.7928460   0.0000000   2.7928460   2.7928460   0.4037610   0.0000000   0.0000000   2.7928460   2.7928460
 AtZNuc=   6.0000000   1.0000000   6.0000000   1.0000000   1.0000000   7.0000000   6.0000000   6.0000000   1.0000000   1.0000000

  Atom        71          72          73          74
 IAtWgt=           1           1           1           1
 AtmWgt=   1.0078250   1.0078250   1.0078250   1.0078250
 NucSpn=           1           1           1           1
 AtZEff=  -1.0000000  -1.0000000  -1.0000000  -1.0000000
 NQMom=    0.0000000   0.0000000   0.0000000   0.0000000
 NMagM=    2.7928460   2.7928460   2.7928460   2.7928460
 AtZNuc=   1.0000000   1.0000000   1.0000000   1.0000000
 Leave Link  101 at Fri Aug 10 23:23:25 2018, MaxMem=  1879048192 cpu:         0.1
 (Enter /share/apps/gaussian/g09_D01/g09/l202.exe)
 Symmetry turned off by external request.
 Stoichiometry    C34H34N2O4
 Framework group  C1[X(C34H34N2O4)]
 Deg. of freedom   216
 Full point group                 C1      NOp   1
                          Input orientation:                          
 ---------------------------------------------------------------------
 Center     Atomic      Atomic             Coordinates (Angstroms)
 Number     Number       Type             X           Y           Z
 ---------------------------------------------------------------------
      1          6           0       -0.045604   -3.212643   -0.673042
      2          6           0       -1.163557   -4.037551   -0.999057
      3          1           0       -0.121291   -2.475288    0.121883
      4          6           0        1.146608   -3.335524   -1.348586
      5          6           0       -0.997931   -4.974953   -2.055672
      6          7           0       -2.337452   -3.933160   -0.324579
      7          6           0        1.320601   -4.270503   -2.399224
      8          1           0        1.971105   -2.682196   -1.060472
      9          6           0        0.202155   -5.074774   -2.725295
     10          1           0       -1.826104   -5.611893   -2.356233
     11          6           0       -3.451039   -4.817588   -0.638286
     12          6           0       -2.482782   -2.951131    0.738607
     13          6           0        2.521300   -4.396929   -3.164451
     14          1           0        0.299534   -5.792287   -3.541330
     15          1           0       -3.150286   -5.872565   -0.549647
     16          1           0       -4.268925   -4.626441    0.063239
     17          1           0       -3.818958   -4.648925   -1.662177
     18          1           0       -2.290162   -1.933406    0.365237
     19          1           0       -3.502453   -2.991283    1.132588
     20          1           0       -1.783201   -3.152381    1.563457
     21          6           0        3.704177   -3.730044   -2.976341
     22          1           0        2.478430   -5.091951   -4.010014
     23          6           0        4.824246   -3.904072   -3.862622
     24          1           0        3.810173   -3.042685   -2.139497
     25          6           0        6.116034   -3.241308   -3.594826
     26          8           0        4.726790   -4.644034   -4.908669
     27          6           0        7.196441   -3.444502   -4.505463
     28          6           0        6.353060   -2.418884   -2.472996
     29          1           0        6.047681   -4.528914   -5.530262
     30          6           0        8.449310   -2.862065   -4.256098
     31          8           0        7.039043   -4.198267   -5.611204
     32          6           0        7.588797   -1.834009   -2.241935
     33          1           0        5.552651   -2.221827   -1.761605
     34          6           0        8.641937   -2.065551   -3.137064
     35          1           0        9.257308   -3.069135   -4.957770
     36          1           0        7.737617   -1.196134   -1.371176
     37          1           0        9.619574   -1.619592   -2.947297
     38          6           0       -7.196442   -6.840499    4.505462
     39          6           0       -8.449309   -7.422935    4.256097
     40          6           0       -6.116034   -7.043692    3.594826
     41          8           0       -7.039043   -6.086733    5.611203
     42          6           0       -8.641938   -8.219449    3.137063
     43          1           0       -9.257309   -7.215866    4.957770
     44          6           0       -6.353060   -7.866116    2.472996
     45          6           0       -4.824246   -6.380928    3.862622
     46          1           0       -6.047680   -5.756085    5.530263
     47          6           0       -7.588796   -8.450990    2.241936
     48          1           0       -9.619575   -8.665408    2.947296
     49          1           0       -5.552651   -8.063173    1.761606
     50          6           0       -3.704178   -6.554956    2.976342
     51          8           0       -4.726790   -5.640966    4.908668
     52          1           0       -7.737618   -9.088866    1.371175
     53          6           0       -2.521300   -5.888071    3.164452
     54          1           0       -3.810174   -7.242315    2.139497
     55          6           0       -1.320601   -6.014497    2.399224
     56          1           0       -2.478430   -5.193048    4.010013
     57          6           0       -1.146607   -6.949476    1.348586
     58          6           0       -0.202155   -5.210226    2.725294
     59          1           0       -1.971105   -7.602804    1.060473
     60          6           0        0.045604   -7.072357    0.673042
     61          6           0        0.997930   -5.310047    2.055673
     62          1           0       -0.299533   -4.492713    3.541330
     63          6           0        1.163557   -6.247449    0.999056
     64          1           0        0.121292   -7.809712   -0.121883
     65          1           0        1.826104   -4.673106    2.356233
     66          7           0        2.337452   -6.351839    0.324578
     67          6           0        2.482783   -7.333867   -0.738608
     68          6           0        3.451039   -5.467412    0.638287
     69          1           0        2.290163   -8.351594   -0.365237
     70          1           0        3.502452   -7.293717   -1.132587
     71          1           0        1.783202   -7.132620   -1.563458
     72          1           0        3.150286   -4.412434    0.549647
     73          1           0        4.268925   -5.658559   -0.063239
     74          1           0        3.818959   -5.636076    1.662178
 ---------------------------------------------------------------------
 Rotational constants (GHZ):      0.2752480      0.0274086      0.0268371
 Leave Link  202 at Fri Aug 10 23:23:25 2018, MaxMem=  1879048192 cpu:         0.0
 (Enter /share/apps/gaussian/g09_D01/g09/l301.exe)
 Basis read from chk: "2hc_1_rel-mega_dimer_0.chk" (5D, 7F)
 No pseudopotential information found on chk file.
   234 basis functions,   702 primitive gaussians,   234 cartesian basis functions
   142 alpha electrons      142 beta electrons
       nuclear repulsion energy      4152.0433499707 Hartrees.
 IExCor= 4639 DFT=T Ex+Corr=wB97XD ExCW=0 ScaHFX=  1.000000
 ScaDFX=  1.000000  1.000000  1.000000  1.000000 ScalE2=  1.000000  1.000000
 IRadAn=      0 IRanWt=     -1 IRanGd=            0 ICorTp=0 IEmpDi=121
  HFx wShort=  0.000000 wLong=  0.200000 cFull=  0.222036 cShort=  0.000000 cLong=  0.777964
  DFx wShort=  0.000000 wLong=  0.200000 cFull=  0.000000 cShort=  0.000000 cLong=  1.000000
 NAtoms=   74 NActive=   74 NUniq=   74 SFac= 1.00D+00 NAtFMM=   60 NAOKFM=T Big=T
 Integral buffers will be    131072 words long.
 Raffenetti 2 integral format.
 Two-electron integral symmetry is turned off.
 R6Disp:  Grimme-D2 Dispersion energy=       -0.0646965894 Hartrees.
 Nuclear repulsion after empirical dispersion term =     4151.9786533813 Hartrees.
 No density basis found on file 20724.
 Leave Link  301 at Fri Aug 10 23:23:25 2018, MaxMem=  1879048192 cpu:         0.1
 (Enter /share/apps/gaussian/g09_D01/g09/l302.exe)
 NPDir=0 NMtPBC=     1 NCelOv=     1 NCel=       1 NClECP=     1 NCelD=      1
         NCelK=      1 NCelE2=     1 NClLst=     1 CellRange=     0.0.
 One-electron integrals computed using PRISM.
 NBasis=   234 RedAO= T EigKep=  1.75D-01  NBF=   234
 NBsUse=   234 1.00D-06 EigRej= -1.00D+00 NBFU=   234
 Precomputing XC quadrature grid using
 IXCGrd= 4 IRadAn=           0 IRanWt=          -1 IRanGd=           0 AccXCQ= 0.00D+00.
 Generated NRdTot=       0 NPtTot=           0 NUsed=           0 NTot=          32
 NSgBfM=   200   200   202   202   204 MxSgAt=    74 MxSgA2=    73.
 Leave Link  302 at Fri Aug 10 23:23:26 2018, MaxMem=  1879048192 cpu:         3.1
 (Enter /share/apps/gaussian/g09_D01/g09/l303.exe)
 DipDrv:  MaxL=1.
 Leave Link  303 at Fri Aug 10 23:23:27 2018, MaxMem=  1879048192 cpu:         0.1
 (Enter /share/apps/gaussian/g09_D01/g09/l401.exe)
 ExpMin= 1.69D-01 ExpMax= 1.31D+02 ExpMxC= 1.31D+02 IAcc=1 IRadAn=         1 AccDes= 0.00D+00
 Harris functional with IExCor= 4639 and IRadAn=       1 diagonalized for initial guess.
 HarFok:  IExCor= 4639 AccDes= 0.00D+00 IRadAn=         1 IDoV= 1 UseB2=F ITyADJ=14
 ICtDFT=  3500011 ScaDFX=  1.000000  1.000000  1.000000  1.000000
 FoFCou: FMM=F IPFlag=           0 FMFlag=      100000 FMFlg1=        2001
         NFxFlg=           0 DoJE=T BraDBF=F KetDBF=T FulRan=T
         wScrn=  0.000000 ICntrl=     500 IOpCl=  0 I1Cent=   200000004 NGrid=           0
         NMat0=    1 NMatS0=      1 NMatT0=    0 NMatD0=    1 NMtDS0=    0 NMtDT0=    0
 Symmetry not used in FoFCou.
 Harris En= -1628.85398602369    
 JPrj=0 DoOrth=F DoCkMO=F.
 Leave Link  401 at Fri Aug 10 23:23:29 2018, MaxMem=  1879048192 cpu:         5.4
 (Enter /share/apps/gaussian/g09_D01/g09/l601.exe)
 Using densities on the checkpoint file.
 Alpha spin Natural Transition Orbitals for state    2:
                         138       139       140       141       142
                           O         O         O         O         O
     Eigenvalues --     0.00026   0.00091   0.00099   0.48074   0.51918
   1 1   C  1S          0.00284   0.00000   0.00044  -0.00006   0.00092
   2        2S         -0.00684   0.00000  -0.00157   0.00025  -0.00360
   3        2PX        -0.01824  -0.00014  -0.00165   0.00007  -0.00376
   4        2PY         0.03927   0.00023   0.00162   0.00019   0.00329
   5        2PZ        -0.02369  -0.00027  -0.00023  -0.00044   0.00008
   6 2   C  1S         -0.00265   0.00001  -0.00017   0.00005  -0.00058
   7        2S          0.01031  -0.00004   0.00072  -0.00022   0.00254
   8        2PX        -0.00841   0.00000  -0.00038  -0.00005  -0.00022
   9        2PY         0.02652   0.00004   0.00177  -0.00012   0.00303
  10        2PZ        -0.03668  -0.00003  -0.00185   0.00018  -0.00390
  11 3   H  1S          0.00635  -0.00001   0.00048  -0.00006   0.00079
  12 4   C  1S         -0.01051   0.00000  -0.00181   0.00025  -0.00333
  13        2S          0.03689   0.00000   0.00704  -0.00108   0.01432
  14        2PX         0.04504  -0.00003   0.00497  -0.00075   0.00991
  15        2PY        -0.03059   0.00006  -0.00255   0.00029  -0.00393
  16        2PZ        -0.00429  -0.00004  -0.00139   0.00004  -0.00169
  17 5   C  1S         -0.01131   0.00001  -0.00105   0.00011  -0.00155
  18        2S          0.03762  -0.00003   0.00373  -0.00043   0.00613
  19        2PX         0.05313  -0.00019   0.00431  -0.00071   0.00678
  20        2PY         0.04731   0.00022   0.00144   0.00023   0.00307
  21        2PZ        -0.05421  -0.00023  -0.00316  -0.00008  -0.00534
  22 6   N  1S         -0.00059  -0.00004  -0.00003  -0.00004   0.00005
  23        2S          0.00352   0.00016   0.00019   0.00017  -0.00020
  24        2PX         0.02700   0.00019   0.00072   0.00030   0.00154
  25        2PY        -0.05618  -0.00078  -0.00143  -0.00084  -0.00429
  26        2PZ         0.05241   0.00057   0.00119   0.00065   0.00426
  27 7   C  1S         -0.02167   0.00001  -0.00192   0.00031  -0.00437
  28        2S          0.07362  -0.00004   0.00553  -0.00131   0.01807
  29        2PX         0.21204  -0.00009   0.01509  -0.00161   0.02482
  30        2PY        -0.00293  -0.00024   0.00058  -0.00023  -0.00141
  31        2PZ         0.02928   0.00015   0.00101   0.00066  -0.00434
  32 8   H  1S         -0.00851   0.00003   0.00014   0.00013  -0.00196
  33 9   C  1S          0.02011   0.00000   0.00233  -0.00023   0.00335
  34        2S         -0.07068  -0.00002  -0.00867   0.00097  -0.01413
  35        2PX        -0.11518   0.00012  -0.00979   0.00107  -0.01451
  36        2PY        -0.08136   0.00006  -0.00642   0.00087  -0.01295
  37        2PZ         0.01288   0.00003   0.00137   0.00007   0.00001
  38 10  H  1S         -0.04978   0.00006  -0.00293   0.00043  -0.00615
  39 11  C  1S         -0.00120   0.00012  -0.00008   0.00018  -0.00018
  40        2S          0.00451  -0.00048   0.00034  -0.00078   0.00072
  41        2PX         0.00201   0.00010   0.00011  -0.00012   0.00038
  42        2PY        -0.00172   0.00051  -0.00021   0.00102  -0.00017
  43        2PZ        -0.00653  -0.00030  -0.00004  -0.00032  -0.00042
  44 12  C  1S          0.00008  -0.00007   0.00004  -0.00005   0.00003
  45        2S         -0.00020   0.00028  -0.00015   0.00028  -0.00010
  46        2PX        -0.00176   0.00011  -0.00004   0.00019  -0.00016
  47        2PY         0.00136  -0.00009   0.00000  -0.00001  -0.00002
  48        2PZ         0.00048   0.00034   0.00020   0.00034   0.00011
  49 13  C  1S          0.00890  -0.00005  -0.00284  -0.00002   0.00028
  50        2S         -0.01404   0.00020   0.01368  -0.00031   0.00414
  51        2PX        -0.23617   0.00009  -0.02326   0.00282  -0.03905
  52        2PY        -0.13882  -0.00012  -0.02526   0.00262  -0.03626
  53        2PZ        -0.01721  -0.00018  -0.01391   0.00230  -0.03128
  54 14  H  1S          0.00093  -0.00004  -0.00059   0.00001  -0.00041
  55 15  H  1S         -0.01392  -0.00033  -0.00025  -0.00033  -0.00094
  56 16  H  1S         -0.00762  -0.00014  -0.00029  -0.00019  -0.00096
  57 17  H  1S          0.02099   0.00042   0.00048   0.00074   0.00166
  58 18  H  1S          0.01586   0.00000   0.00036   0.00010   0.00121
  59 19  H  1S          0.00206   0.00001   0.00012  -0.00007   0.00017
  60 20  H  1S         -0.01777  -0.00016  -0.00040  -0.00034  -0.00137
  61 21  C  1S          0.05638  -0.00014  -0.00265   0.00248  -0.03396
  62        2S         -0.17695   0.00050   0.01309  -0.01095   0.15002
  63        2PX         0.29432   0.00023   0.05702  -0.01187   0.16183
  64        2PY        -0.04189   0.00007  -0.01134   0.00217  -0.02598
  65        2PZ        -0.27617  -0.00037  -0.04693   0.00975  -0.13766
  66 22  H  1S          0.06247  -0.00001   0.00679   0.00223  -0.03052
  67 23  C  1S         -0.04862  -0.00034  -0.03183  -0.00016   0.00213
  68        2S          0.16430   0.00128   0.11604   0.00124  -0.01680
  69        2PX        -0.31553   0.00073   0.02096   0.00462  -0.06435
  70        2PY        -0.01243   0.00018   0.01235   0.00181  -0.02412
  71        2PZ         0.15057  -0.00017   0.00687  -0.00011   0.00140
  72 24  H  1S         -0.22292  -0.00020  -0.04065   0.00445  -0.06162
  73 25  C  1S          0.00425   0.00092   0.06787  -0.00168   0.02301
  74        2S         -0.01953  -0.00329  -0.24398   0.00732  -0.10021
  75        2PX         0.10877  -0.00189  -0.13378  -0.01779   0.24511
  76        2PY         0.02285   0.00042   0.03999  -0.00524   0.07123
  77        2PZ         0.01652   0.00146   0.10462   0.00049  -0.00645
  78 26  O  1S          0.05702   0.00065   0.05384  -0.00069   0.00954
  79        2S         -0.22461  -0.00301  -0.24646   0.00304  -0.04167
  80        2PX        -0.18569   0.00428   0.28543  -0.05837   0.80281
  81        2PY        -0.03606   0.00151   0.10960  -0.01462   0.19824
  82        2PZ         0.05631   0.00025   0.02243   0.01228  -0.16737
  83 27  C  1S         -0.00854  -0.00020  -0.01583   0.00034  -0.00464
  84        2S          0.03268   0.00071   0.05693  -0.00169   0.02309
  85        2PX        -0.11173   0.00260   0.18171   0.00380  -0.05251
  86        2PY        -0.02750   0.00017   0.01412   0.00074  -0.01070
  87        2PZ         0.04716  -0.00146  -0.10646  -0.00128   0.01810
  88 28  C  1S          0.00055  -0.00019  -0.01430   0.00049  -0.00673
  89        2S         -0.00222   0.00082   0.06118  -0.00203   0.02779
  90        2PX        -0.11221   0.00104   0.06901   0.00245  -0.03387
  91        2PY        -0.02607   0.00012   0.00726   0.00211  -0.02931
  92        2PZ         0.01754  -0.00012  -0.00643   0.00198  -0.02697
  93 29  H  1S         -0.00995   0.00483   0.35142  -0.00210   0.02814
  94 30  C  1S         -0.00302  -0.00032  -0.02373  -0.00128   0.01765
  95        2S          0.01272   0.00117   0.08619   0.00542  -0.07466
  96        2PX         0.07240  -0.00276  -0.19997  -0.00652   0.09016
  97        2PY         0.02503  -0.00114  -0.07888  -0.00290   0.03977
  98        2PZ         0.01977  -0.00078  -0.05774  -0.00196   0.02729
  99 31  O  1S         -0.00933   0.00109   0.07921   0.00017  -0.00255
 100        2S          0.03717  -0.00541  -0.39286  -0.00025   0.00437
 101        2PX        -0.10700  -0.00665  -0.49659  -0.02781   0.38304
 102        2PY         0.00596   0.00004  -0.00565  -0.00597   0.08302
 103        2PZ         0.02869   0.00415   0.31552   0.00795  -0.11059
 104 32  C  1S          0.00835  -0.00005  -0.00347  -0.00056   0.00770
 105        2S         -0.02379   0.00008   0.00513   0.00220  -0.03026
 106        2PX         0.08534  -0.00110  -0.07317  -0.00357   0.04917
 107        2PY         0.06148  -0.00071  -0.05459  -0.00201   0.02830
 108        2PZ         0.00580  -0.00011  -0.00366  -0.00025   0.00310
 109 33  H  1S          0.08336  -0.00085  -0.05619  -0.00331   0.04588
 110 34  C  1S         -0.00391   0.00012   0.00802   0.00026  -0.00364
 111        2S          0.00905  -0.00035  -0.02470  -0.00098   0.01357
 112        2PX        -0.05663   0.00091   0.06455   0.00087  -0.01234
 113        2PY        -0.00781   0.00063   0.04303   0.00102  -0.01371
 114        2PZ        -0.01038   0.00050   0.03883   0.00129  -0.01800
 115 35  H  1S          0.05114  -0.00127  -0.09088  -0.00210   0.02905
 116 36  H  1S          0.03852  -0.00058  -0.04026  -0.00194   0.02677
 117 37  H  1S         -0.06338   0.00132   0.09386   0.00227  -0.03153
 118 38  C  1S          0.00135   0.01582  -0.00022   0.00464   0.00033
 119        2S         -0.00527  -0.05692   0.00081  -0.02310  -0.00167
 120        2PX        -0.01772   0.18174  -0.00235  -0.05252  -0.00383
 121        2PY        -0.00493   0.01406  -0.00021  -0.01068  -0.00081
 122        2PZ         0.00772  -0.10645   0.00143   0.01809   0.00135
 123 39  C  1S          0.00054   0.02373  -0.00032  -0.01765  -0.00129
 124        2S         -0.00223  -0.08618   0.00117   0.07466   0.00543
 125        2PX         0.01159  -0.19997   0.00267   0.09014   0.00659
 126        2PY         0.00380  -0.07890   0.00100   0.03979   0.00288
 127        2PZ         0.00334  -0.05770   0.00081   0.02727   0.00201
 128 40  C  1S         -0.00091  -0.06787   0.00092  -0.02301  -0.00167
 129        2S          0.00383   0.24397  -0.00332   0.10022   0.00726
 130        2PX         0.01754  -0.13380   0.00178   0.24509   0.01785
 131        2PY         0.00300   0.03995  -0.00066   0.07127   0.00512
 132        2PZ         0.00341   0.10466  -0.00138  -0.00647  -0.00045
 133 41  O  1S          0.00159  -0.07922   0.00106   0.00254   0.00020
 134        2S         -0.00630   0.39287  -0.00526  -0.00436  -0.00038
 135        2PX        -0.01847  -0.49658   0.00681   0.38306   0.02788
 136        2PY         0.00167  -0.00560   0.00020   0.08297   0.00609
 137        2PZ         0.00455   0.31551  -0.00439  -0.11055  -0.00812
 138 42  C  1S          0.00065  -0.00803   0.00011   0.00364   0.00027
 139        2S         -0.00151   0.02473  -0.00033  -0.01357  -0.00099
 140        2PX        -0.00945   0.06456  -0.00085  -0.01234  -0.00092
 141        2PY        -0.00085   0.04306  -0.00057  -0.01372  -0.00098
 142        2PZ        -0.00189   0.03878  -0.00054  -0.01799  -0.00133
 143 43  H  1S         -0.00820   0.09090  -0.00119  -0.02904  -0.00213
 144 44  C  1S         -0.00005   0.01430  -0.00020   0.00673   0.00049
 145        2S          0.00024  -0.06115   0.00086  -0.02780  -0.00201
 146        2PX        -0.01840   0.06902  -0.00083  -0.03387  -0.00248
 147        2PY        -0.00440   0.00729  -0.00010  -0.02931  -0.00215
 148        2PZ         0.00343  -0.00647   0.00006  -0.02697  -0.00194
 149 45  C  1S          0.00837   0.03183  -0.00051  -0.00213  -0.00015
 150        2S         -0.02834  -0.11605   0.00185   0.01681   0.00121
 151        2PX        -0.05303   0.02101   0.00010  -0.06434  -0.00474
 152        2PY        -0.00119   0.01237  -0.00017  -0.02412  -0.00170
 153        2PZ         0.02521   0.00684  -0.00033   0.00141   0.00009
 154 46  H  1S          0.00156  -0.35141   0.00471  -0.02814  -0.00200
 155 47  C  1S         -0.00134   0.00347  -0.00004  -0.00770  -0.00056
 156        2S          0.00383  -0.00515   0.00004   0.03026   0.00220
 157        2PX         0.01379  -0.07322   0.00092   0.04918   0.00358
 158        2PY         0.01042  -0.05449   0.00075   0.02826   0.00210
 159        2PZ         0.00069  -0.00366   0.00001   0.00312   0.00021
 160 48  H  1S          0.01035  -0.09385   0.00124   0.03152   0.00231
 161 49  H  1S         -0.01392   0.05623  -0.00067  -0.04588  -0.00336
 162 50  C  1S         -0.00971   0.00266   0.00006   0.03396   0.00246
 163        2S          0.03058  -0.01310  -0.00013  -0.15003  -0.01086
 164        2PX         0.04765   0.05700  -0.00126   0.16186   0.01166
 165        2PY        -0.00248  -0.01137   0.00038  -0.02606  -0.00162
 166        2PZ        -0.05024  -0.04686   0.00087  -0.13760  -0.01026
 167 51  O  1S         -0.00965  -0.05384   0.00080  -0.00954  -0.00069
 168        2S          0.03802   0.24644  -0.00363   0.04167   0.00302
 169        2PX        -0.03031   0.28543  -0.00348   0.80281   0.05835
 170        2PY        -0.00929   0.10970  -0.00148   0.19827   0.01421
 171        2PZ         0.01140   0.02237  -0.00034  -0.16739  -0.01206
 172 52  H  1S         -0.00626   0.04020  -0.00053  -0.02677  -0.00195
 173 53  C  1S         -0.00146   0.00285  -0.00003  -0.00028  -0.00002
 174        2S          0.00217  -0.01369   0.00019  -0.00414  -0.00030
 175        2PX        -0.04021  -0.02325   0.00069  -0.03904  -0.00286
 176        2PY        -0.02317  -0.02522   0.00053  -0.03628  -0.00265
 177        2PZ        -0.00260  -0.01386   0.00021  -0.03126  -0.00225
 178 54  H  1S          0.03786   0.04064  -0.00088   0.06162   0.00451
 179 55  C  1S          0.00363   0.00192  -0.00005   0.00437   0.00032
 180        2S         -0.01229  -0.00553   0.00017  -0.01807  -0.00132
 181        2PX         0.03920   0.01508  -0.00045   0.02478   0.00199
 182        2PY        -0.00555   0.00065  -0.00027  -0.00134  -0.00042
 183        2PZ         0.01060   0.00092   0.00016  -0.00442   0.00002
 184 56  H  1S         -0.01059  -0.00675   0.00019   0.03052   0.00221
 185 57  C  1S          0.00167   0.00181  -0.00005   0.00334   0.00023
 186        2S         -0.00581  -0.00704   0.00018  -0.01432  -0.00101
 187        2PX         0.00752   0.00494  -0.00014   0.00991   0.00069
 188        2PY        -0.00569  -0.00250   0.00010  -0.00392  -0.00028
 189        2PZ        -0.00129  -0.00141   0.00000  -0.00169  -0.00020
 190 58  C  1S         -0.00358  -0.00233   0.00006  -0.00334  -0.00026
 191        2S          0.01250   0.00866  -0.00023   0.01412   0.00108
 192        2PX        -0.01968  -0.00979   0.00036  -0.01452  -0.00104
 193        2PY        -0.01507  -0.00641   0.00020  -0.01293  -0.00101
 194        2PZ         0.00337   0.00130  -0.00001  -0.00001   0.00007
 195 59  H  1S          0.00168  -0.00014  -0.00002   0.00196   0.00016
 196 60  C  1S         -0.00060  -0.00043   0.00001  -0.00092  -0.00007
 197        2S          0.00136   0.00154  -0.00005   0.00360   0.00027
 198        2PX        -0.00613  -0.00165  -0.00011  -0.00372  -0.00047
 199        2PY         0.01318   0.00157   0.00020   0.00321   0.00066
 200        2PZ        -0.01070  -0.00024  -0.00026   0.00016  -0.00042
 201 61  C  1S          0.00185   0.00104  -0.00004   0.00155   0.00011
 202        2S         -0.00623  -0.00369   0.00012  -0.00612  -0.00046
 203        2PX         0.00646   0.00431  -0.00030   0.00682   0.00028
 204        2PY         0.01496   0.00142   0.00019   0.00299   0.00067
 205        2PZ        -0.01593  -0.00314  -0.00018  -0.00525  -0.00085
 206 62  H  1S         -0.00010   0.00055   0.00001   0.00041   0.00005
 207 63  C  1S          0.00028   0.00017  -0.00001   0.00058   0.00004
 208        2S         -0.00107  -0.00073   0.00006  -0.00255  -0.00015
 209        2PX        -0.00278  -0.00034   0.00000  -0.00020  -0.00008
 210        2PY         0.00761   0.00175   0.00002   0.00300   0.00032
 211        2PZ        -0.00933  -0.00181   0.00001  -0.00387  -0.00038
 212 64  H  1S         -0.00103  -0.00046   0.00002  -0.00079  -0.00006
 213 65  H  1S          0.00878   0.00294  -0.00014   0.00615   0.00046
 214 66  N  1S          0.00044   0.00003   0.00004  -0.00005   0.00003
 215        2S         -0.00193  -0.00018  -0.00016   0.00022  -0.00014
 216        2PX         0.01059   0.00069   0.00018   0.00146   0.00052
 217        2PY        -0.02463  -0.00141  -0.00074  -0.00410  -0.00145
 218        2PZ         0.02250   0.00116   0.00055   0.00409   0.00125
 219 67  C  1S          0.00051  -0.00003   0.00007  -0.00004   0.00005
 220        2S         -0.00222   0.00014  -0.00030   0.00014  -0.00026
 221        2PX         0.00159  -0.00006   0.00013  -0.00018   0.00016
 222        2PY        -0.00031  -0.00001  -0.00009  -0.00002  -0.00002
 223        2PZ         0.00274   0.00022   0.00034   0.00006   0.00036
 224 68  C  1S         -0.00038   0.00009  -0.00013   0.00020  -0.00016
 225        2S          0.00130  -0.00034   0.00050  -0.00083   0.00066
 226        2PX         0.00125   0.00013   0.00009   0.00039  -0.00006
 227        2PY         0.00365  -0.00021   0.00052  -0.00031   0.00098
 228        2PZ        -0.00477  -0.00006  -0.00031  -0.00037  -0.00038
 229 69  H  1S         -0.00524  -0.00033   0.00001  -0.00118  -0.00027
 230 70  H  1S         -0.00051  -0.00014   0.00001  -0.00018   0.00005
 231 71  H  1S          0.00693   0.00039   0.00014   0.00130   0.00053
 232 72  H  1S          0.00934   0.00023   0.00034   0.00087   0.00046
 233 73  H  1S          0.00296   0.00030   0.00013   0.00092   0.00033
 234 74  H  1S         -0.01029  -0.00048  -0.00042  -0.00153  -0.00097
                         143       144       145       146       147
                           V         V         V         V         V
     Eigenvalues --     0.51918   0.48074   0.00099   0.00091   0.00026
   1 1   C  1S         -0.00035  -0.00005   0.00019   0.00005  -0.00026
   2        2S          0.00157  -0.00021  -0.00071  -0.00022   0.00141
   3        2PX        -0.00927  -0.00079   0.00807  -0.00028  -0.01428
   4        2PY         0.02724   0.00238  -0.01920   0.00070   0.03540
   5        2PZ        -0.02746  -0.00301   0.01978  -0.00100  -0.03536
   6 2   C  1S         -0.00017  -0.00021  -0.00002  -0.00002  -0.00023
   7        2S          0.00094   0.00118   0.00018   0.00008   0.00105
   8        2PX        -0.04460  -0.00226  -0.01170   0.00072  -0.05243
   9        2PY         0.09687   0.00539   0.02510  -0.00148   0.11375
  10        2PZ        -0.09326  -0.00481  -0.02404   0.00160  -0.10844
  11 3   H  1S         -0.00189  -0.00018   0.00022   0.00007  -0.00226
  12 4   C  1S          0.00121  -0.00019  -0.00059  -0.00002   0.00117
  13        2S         -0.00551   0.00060   0.00255   0.00007  -0.00648
  14        2PX         0.04746   0.00386   0.00295  -0.00028   0.07173
  15        2PY        -0.10716  -0.00784  -0.00562   0.00089  -0.15544
  16        2PZ         0.11135   0.00943   0.00274  -0.00075   0.16241
  17 5   C  1S          0.00012   0.00003  -0.00005   0.00003   0.00019
  18        2S         -0.00056  -0.00027   0.00014  -0.00009  -0.00088
  19        2PX        -0.01121  -0.00062   0.01260  -0.00016  -0.00175
  20        2PY         0.02449   0.00180  -0.02923   0.00065  -0.00279
  21        2PZ        -0.02295  -0.00198   0.02783  -0.00052   0.00346
  22 6   N  1S          0.00017   0.00005   0.00009  -0.00008   0.00037
  23        2S         -0.00098  -0.00014  -0.00053   0.00037  -0.00211
  24        2PX         0.03930   0.00154   0.00293  -0.00012   0.03997
  25        2PY        -0.07897  -0.00497  -0.00590   0.00045  -0.08076
  26        2PZ         0.07914   0.00543   0.00622  -0.00004   0.08120
  27 7   C  1S         -0.00075  -0.00013   0.00044  -0.00004  -0.00059
  28        2S          0.00339   0.00064  -0.00172   0.00019   0.00255
  29        2PX         0.00828   0.00178  -0.03188   0.00112  -0.03135
  30        2PY        -0.00999  -0.00400   0.06802  -0.00247   0.08646
  31        2PZ         0.00746   0.00327  -0.06265   0.00229  -0.07834
  32 8   H  1S         -0.00094   0.00003  -0.00061  -0.00005   0.00043
  33 9   C  1S         -0.00050  -0.00025   0.00004  -0.00002  -0.00136
  34        2S          0.00268   0.00086  -0.00008   0.00005   0.00778
  35        2PX         0.05177   0.00332  -0.00310  -0.00050   0.06231
  36        2PY        -0.11355  -0.00777   0.00573   0.00112  -0.12935
  37        2PZ         0.10690   0.00685  -0.00570  -0.00123   0.12521
  38 10  H  1S         -0.00010  -0.00014  -0.00026  -0.00001  -0.00081
  39 11  C  1S         -0.00026   0.00079  -0.00007   0.00010  -0.00061
  40        2S          0.00120  -0.00405   0.00039  -0.00080   0.00309
  41        2PX         0.00319  -0.00149   0.00163  -0.00022   0.00320
  42        2PY        -0.00379   0.00477  -0.00228   0.00088  -0.00440
  43        2PZ         0.00364  -0.00079   0.00272  -0.00011   0.00439
  44 12  C  1S         -0.00001  -0.00001   0.00001  -0.00008   0.00005
  45        2S          0.00002  -0.00047  -0.00004   0.00078  -0.00019
  46        2PX         0.00156  -0.00317   0.00146   0.00090   0.00203
  47        2PY        -0.00407   0.00080  -0.00315   0.00082  -0.00577
  48        2PZ         0.00391  -0.00037   0.00317   0.00020   0.00505
  49 13  C  1S          0.00146   0.00010  -0.00068   0.00003   0.00021
  50        2S         -0.00785  -0.00059   0.00288  -0.00014  -0.00280
  51        2PX        -0.14364  -0.01045   0.06246  -0.00055  -0.15019
  52        2PY         0.31947   0.02333  -0.14433   0.00134   0.35989
  53        2PZ        -0.26191  -0.01945   0.11441  -0.00114  -0.28608
  54 14  H  1S         -0.00150   0.00005  -0.00003  -0.00002  -0.00125
  55 15  H  1S         -0.02463   0.00109  -0.00410   0.00165  -0.02511
  56 16  H  1S         -0.00225   0.00048  -0.00043   0.00043  -0.00296
  57 17  H  1S          0.02582   0.00255   0.00426  -0.00033   0.02506
  58 18  H  1S          0.02487  -0.00066   0.00442  -0.00067   0.02577
  59 19  H  1S          0.00113   0.00084   0.00024  -0.00057   0.00097
  60 20  H  1S         -0.02590   0.00154  -0.00472  -0.00101  -0.02641
  61 21  C  1S          0.00007  -0.00005  -0.00019  -0.00002  -0.00027
  62        2S          0.00004   0.00024   0.00162   0.00012   0.00071
  63        2PX         0.04388   0.00260  -0.02431  -0.00030   0.23531
  64        2PY        -0.10415  -0.00588   0.05067   0.00088  -0.53446
  65        2PZ         0.07920   0.00490  -0.04078  -0.00053   0.40706
  66 22  H  1S          0.00089   0.00028  -0.00351   0.00012  -0.00090
  67 23  C  1S          0.00050   0.00006  -0.00062   0.00002   0.00145
  68        2S         -0.00221  -0.00028   0.00205  -0.00011  -0.00746
  69        2PX         0.17637   0.01324  -0.09560   0.00176  -0.16538
  70        2PY        -0.45825  -0.03420   0.25944  -0.00467   0.41313
  71        2PZ         0.30609   0.02277  -0.17536   0.00314  -0.28451
  72 24  H  1S          0.01325   0.00098  -0.00372  -0.00004  -0.00336
  73 25  C  1S         -0.00031  -0.00002   0.00065  -0.00002  -0.00079
  74        2S          0.00157   0.00011  -0.00361   0.00009   0.00626
  75        2PX         0.00740   0.00065   0.20570  -0.00283   0.03171
  76        2PY        -0.01958  -0.00178  -0.56345   0.00768  -0.09500
  77        2PZ         0.01222   0.00111   0.37260  -0.00506   0.06419
  78 26  O  1S          0.00017   0.00001   0.00102  -0.00002  -0.00020
  79        2S         -0.00093  -0.00006  -0.00574   0.00009   0.00062
  80        2PX        -0.18012  -0.01321   0.03510  -0.00069   0.07792
  81        2PY         0.46281   0.03391  -0.11723   0.00218  -0.20233
  82        2PZ        -0.30790  -0.02250   0.07830  -0.00144   0.14231
  83 27  C  1S         -0.00004   0.00000  -0.00076   0.00001  -0.00010
  84        2S          0.00006   0.00000   0.00477  -0.00005   0.00092
  85        2PX        -0.06265  -0.00467  -0.14428   0.00188   0.05891
  86        2PY         0.18443   0.01374   0.41902  -0.00545  -0.17306
  87        2PZ        -0.11775  -0.00877  -0.26304   0.00341   0.11030
  88 28  C  1S          0.00102   0.00007   0.00052  -0.00001   0.00067
  89        2S         -0.00484  -0.00030  -0.00284   0.00008  -0.00385
  90        2PX        -0.05939  -0.00447  -0.07119   0.00089  -0.03278
  91        2PY         0.17552   0.01309   0.20120  -0.00251   0.09964
  92        2PZ        -0.11561  -0.00858  -0.13255   0.00174  -0.06557
  93 29  H  1S          0.00421   0.00030   0.01911  -0.00026  -0.00115
  94 30  C  1S          0.00015   0.00001   0.00084  -0.00001  -0.00022
  95        2S         -0.00070  -0.00004  -0.00394   0.00007   0.00089
  96        2PX        -0.01767  -0.00132  -0.02735   0.00037  -0.05046
  97        2PY         0.05787   0.00430   0.09851  -0.00132   0.15712
  98        2PZ        -0.03772  -0.00281  -0.06278   0.00083  -0.10369
  99 31  O  1S          0.00054   0.00004   0.00161  -0.00002  -0.00018
 100        2S         -0.00303  -0.00022  -0.00988   0.00012   0.00092
 101        2PX         0.06006   0.00440   0.08505  -0.00110  -0.03751
 102        2PY        -0.15734  -0.01157  -0.20555   0.00262   0.09966
 103        2PZ         0.10049   0.00738   0.13464  -0.00174  -0.06414
 104 32  C  1S         -0.00030  -0.00002   0.00020   0.00000  -0.00034
 105        2S          0.00134   0.00009  -0.00093  -0.00002   0.00157
 106        2PX         0.00805   0.00057  -0.07553   0.00106   0.02498
 107        2PY        -0.02589  -0.00182   0.22153  -0.00303  -0.07396
 108        2PZ         0.01667   0.00117  -0.14813   0.00200   0.05086
 109 33  H  1S          0.00126   0.00005   0.00474  -0.00011   0.00001
 110 34  C  1S          0.00016   0.00001   0.00056  -0.00001   0.00004
 111        2S         -0.00074  -0.00005  -0.00297   0.00007  -0.00007
 112        2PX         0.05507   0.00409   0.12693  -0.00163   0.00953
 113        2PY        -0.16578  -0.01234  -0.38643   0.00510  -0.03178
 114        2PZ         0.10829   0.00807   0.25376  -0.00334   0.02047
 115 35  H  1S          0.00091   0.00007   0.00367  -0.00007  -0.00157
 116 36  H  1S          0.00013   0.00000   0.00133   0.00001  -0.00158
 117 37  H  1S          0.00005   0.00000   0.00233  -0.00009   0.00038
 118 38  C  1S          0.00000  -0.00004   0.00000  -0.00076  -0.00004
 119        2S         -0.00001   0.00006   0.00001   0.00477   0.00012
 120        2PX        -0.00445   0.06266   0.00201   0.14426   0.01033
 121        2PY         0.01310  -0.18447  -0.00588  -0.41903  -0.03080
 122        2PZ        -0.00837   0.11778   0.00371   0.26307   0.01957
 123 39  C  1S         -0.00001   0.00015   0.00001   0.00084   0.00011
 124        2S          0.00006  -0.00070  -0.00004  -0.00397  -0.00054
 125        2PX        -0.00125   0.01768   0.00042   0.02735  -0.00834
 126        2PY         0.00411  -0.05788  -0.00139  -0.09848   0.02485
 127        2PZ        -0.00268   0.03772   0.00089   0.06276  -0.01660
 128 40  C  1S          0.00002  -0.00031   0.00000   0.00063   0.00039
 129        2S         -0.00012   0.00156  -0.00001  -0.00352  -0.00257
 130        2PX         0.00042  -0.00741  -0.00278  -0.20564   0.00317
 131        2PY        -0.00107   0.01963   0.00766   0.56351  -0.01392
 132        2PZ         0.00067  -0.01224  -0.00501  -0.37257   0.00910
 133 41  O  1S         -0.00004   0.00054   0.00002   0.00160   0.00019
 134        2S          0.00022  -0.00303  -0.00012  -0.00984  -0.00120
 135        2PX         0.00434  -0.06007  -0.00120  -0.08499  -0.00790
 136        2PY        -0.01133   0.15735   0.00292   0.20558   0.01726
 137        2PZ         0.00724  -0.10050  -0.00192  -0.13464  -0.01136
 138 42  C  1S         -0.00001   0.00016   0.00001   0.00057   0.00000
 139        2S          0.00006  -0.00074  -0.00005  -0.00300  -0.00006
 140        2PX         0.00392  -0.05508  -0.00176  -0.12688   0.00076
 141        2PY        -0.01178   0.16582   0.00541   0.38643  -0.00304
 142        2PZ         0.00769  -0.10832  -0.00354  -0.25372   0.00206
 143 43  H  1S         -0.00006   0.00091   0.00006   0.00369   0.00035
 144 44  C  1S         -0.00008   0.00102   0.00000   0.00052  -0.00014
 145        2S          0.00040  -0.00483  -0.00001  -0.00281   0.00085
 146        2PX        -0.00417   0.05941   0.00110   0.07120  -0.00486
 147        2PY         0.01245  -0.17556  -0.00294  -0.20120   0.01437
 148        2PZ        -0.00824   0.11563   0.00193   0.13253  -0.00908
 149 45  C  1S         -0.00001   0.00051   0.00001  -0.00060  -0.00058
 150        2S          0.00004  -0.00222  -0.00006   0.00196   0.00329
 151        2PX         0.01242  -0.17644   0.00085   0.09570  -0.02906
 152        2PY        -0.03249   0.45837  -0.00241  -0.25946   0.07065
 153        2PZ         0.02177  -0.30617   0.00168   0.17542  -0.04974
 154 46  H  1S         -0.00031   0.00421   0.00025   0.01901   0.00235
 155 47  C  1S          0.00002  -0.00030   0.00000   0.00019   0.00010
 156        2S         -0.00010   0.00134   0.00003  -0.00093  -0.00049
 157        2PX         0.00060  -0.00805   0.00102   0.07551   0.00389
 158        2PY        -0.00195   0.02588  -0.00296  -0.22152  -0.01247
 159        2PZ         0.00125  -0.01667   0.00196   0.14814   0.00864
 160 48  H  1S         -0.00001   0.00005   0.00005   0.00239  -0.00013
 161 49  H  1S         -0.00013   0.00126   0.00003   0.00471   0.00036
 162 50  C  1S         -0.00006   0.00007  -0.00003  -0.00019   0.00037
 163        2S          0.00024   0.00008   0.00021   0.00166  -0.00225
 164        2PX         0.00377  -0.04379   0.00093   0.02426   0.04034
 165        2PY        -0.00925   0.10391  -0.00217  -0.05058  -0.09245
 166        2PZ         0.00662  -0.07908   0.00159   0.04072   0.06946
 167 51  O  1S         -0.00001   0.00017   0.00001   0.00101   0.00015
 168        2S          0.00007  -0.00093  -0.00007  -0.00571  -0.00071
 169        2PX        -0.01299   0.18014  -0.00027  -0.03516   0.01445
 170        2PY         0.03343  -0.46284   0.00104   0.11725  -0.03527
 171        2PZ        -0.02230   0.30792  -0.00069  -0.07831   0.02465
 172 52  H  1S         -0.00002   0.00013  -0.00002   0.00134   0.00047
 173 53  C  1S         -0.00011   0.00146   0.00001  -0.00067  -0.00028
 174        2S          0.00055  -0.00785  -0.00004   0.00282   0.00198
 175        2PX        -0.01045   0.14364  -0.00108  -0.06244  -0.02554
 176        2PY         0.02315  -0.31949   0.00256   0.14426   0.05903
 177        2PZ        -0.01866   0.26197  -0.00192  -0.11438  -0.04698
 178 54  H  1S         -0.00095   0.01325  -0.00015  -0.00373   0.00130
 179 55  C  1S         -0.00002  -0.00076  -0.00002   0.00044   0.00009
 180        2S          0.00014   0.00344   0.00010  -0.00172  -0.00039
 181        2PX        -0.00057  -0.00845  -0.00025   0.03187  -0.00754
 182        2PY         0.00252   0.01046   0.00061  -0.06803   0.02047
 183        2PZ        -0.00216  -0.00785  -0.00058   0.06273  -0.01872
 184 56  H  1S          0.00014   0.00092   0.00000  -0.00346   0.00003
 185 57  C  1S         -0.00036   0.00117  -0.00005  -0.00059  -0.00042
 186        2S          0.00139  -0.00537   0.00021   0.00254   0.00183
 187        2PX         0.00305  -0.04753   0.00025  -0.00300   0.01241
 188        2PY        -0.00775   0.10716  -0.00075   0.00571  -0.02763
 189        2PZ         0.00679  -0.11154   0.00067  -0.00277   0.02755
 190 58  C  1S         -0.00018  -0.00053  -0.00002   0.00004  -0.00002
 191        2S          0.00046   0.00278   0.00006  -0.00007  -0.00050
 192        2PX         0.00421  -0.05171   0.00055   0.00310   0.01134
 193        2PY        -0.00875   0.11348  -0.00124  -0.00570  -0.02340
 194        2PZ         0.00869  -0.10676   0.00133   0.00568   0.02280
 195 59  H  1S          0.00017  -0.00092  -0.00006  -0.00061   0.00018
 196 60  C  1S          0.00000  -0.00036   0.00005   0.00018   0.00006
 197        2S         -0.00043   0.00153  -0.00026  -0.00068  -0.00069
 198        2PX        -0.00056   0.00929   0.00013  -0.00807  -0.00166
 199        2PY         0.00159  -0.02730  -0.00011   0.01917   0.00464
 200        2PZ        -0.00100   0.02761   0.00042  -0.01973  -0.00342
 201 61  C  1S          0.00001   0.00012   0.00003  -0.00005   0.00006
 202        2S         -0.00018  -0.00060  -0.00009   0.00016  -0.00043
 203        2PX        -0.00100   0.01118  -0.00017  -0.01259  -0.00012
 204        2PY         0.00176  -0.02449   0.00014   0.02924  -0.00199
 205        2PZ        -0.00136   0.02300  -0.00018  -0.02784   0.00208
 206 62  H  1S          0.00027  -0.00148  -0.00002  -0.00005   0.00053
 207 63  C  1S         -0.00018  -0.00020  -0.00002  -0.00002  -0.00003
 208        2S          0.00103   0.00110   0.00006   0.00017   0.00034
 209        2PX        -0.00422   0.04446  -0.00036   0.01172  -0.01128
 210        2PY         0.00869  -0.09663   0.00082  -0.02511   0.02310
 211        2PZ        -0.00874   0.09297  -0.00089   0.02404  -0.02218
 212 64  H  1S          0.00010  -0.00190   0.00010   0.00023   0.00033
 213 65  H  1S         -0.00012  -0.00011  -0.00004  -0.00029   0.00011
 214 66  N  1S          0.00002   0.00018  -0.00008   0.00010  -0.00020
 215        2S          0.00000  -0.00099   0.00034  -0.00054   0.00106
 216        2PX         0.00416  -0.03911   0.00001  -0.00294   0.00836
 217        2PY        -0.00651   0.07886  -0.00030   0.00588  -0.01403
 218        2PZ         0.00608  -0.07909  -0.00016  -0.00623   0.01395
 219 67  C  1S         -0.00001  -0.00001  -0.00008   0.00002  -0.00024
 220        2S         -0.00047  -0.00005   0.00076  -0.00007   0.00050
 221        2PX         0.00337  -0.00108  -0.00094  -0.00140   0.00108
 222        2PY        -0.00138   0.00391  -0.00074   0.00318  -0.00158
 223        2PZ         0.00093  -0.00381  -0.00029  -0.00319   0.00052
 224 68  C  1S          0.00082  -0.00014   0.00011  -0.00006   0.00219
 225        2S         -0.00418   0.00060  -0.00084   0.00034  -0.01150
 226        2PX         0.00194  -0.00295   0.00015  -0.00167  -0.00005
 227        2PY        -0.00527   0.00306  -0.00085   0.00225  -0.00955
 228        2PZ         0.00131  -0.00349   0.00000  -0.00273   0.00519
 229 69  H  1S         -0.00426   0.02451  -0.00054   0.00446  -0.00729
 230 70  H  1S          0.00067   0.00124  -0.00056   0.00021   0.00093
 231 71  H  1S          0.00527  -0.02540  -0.00113  -0.00468   0.00733
 232 72  H  1S          0.00465  -0.02421   0.00157  -0.00407   0.01019
 233 73  H  1S          0.00080  -0.00216   0.00043  -0.00040   0.00426
 234 74  H  1S         -0.00122   0.02592  -0.00015   0.00431  -0.00173

 **********************************************************************

   Populations using transition density between ground and state  2.

 **********************************************************************

 Alpha  occ. eigenvalues --  -17.83753 -17.83753 -17.82314 -17.82313 -13.23640
 Alpha  occ. eigenvalues --  -13.23640  -9.33260  -9.33260  -9.33233  -9.33232
 Alpha  occ. eigenvalues --   -9.33145  -9.33145  -9.33047  -9.33046  -9.33024
 Alpha  occ. eigenvalues --   -9.33023  -9.33014  -9.33014  -9.32913  -9.32913
 Alpha  occ. eigenvalues --   -9.32895  -9.32895  -9.32824  -9.32824  -9.32811
 Alpha  occ. eigenvalues --   -9.32811  -9.32798  -9.32798  -9.32732  -9.32732
 Alpha  occ. eigenvalues --   -9.32195  -9.32195  -9.31684  -9.31684  -9.31426
 Alpha  occ. eigenvalues --   -9.31425  -9.31045  -9.31042  -9.30962  -9.30962
 Alpha  occ. eigenvalues --   -0.81668  -0.81668  -0.77414  -0.77414  -0.74756
 Alpha  occ. eigenvalues --   -0.74557  -0.69639  -0.69502  -0.69280  -0.69276
 Alpha  occ. eigenvalues --   -0.63737  -0.63570  -0.60512  -0.60421  -0.60359
 Alpha  occ. eigenvalues --   -0.60165  -0.58001  -0.57950  -0.57177  -0.57148
 Alpha  occ. eigenvalues --   -0.56054  -0.55839  -0.52210  -0.52154  -0.48837
 Alpha  occ. eigenvalues --   -0.48819  -0.46919  -0.46798  -0.46385  -0.46309
 Alpha  occ. eigenvalues --   -0.44417  -0.44368  -0.43402  -0.43389  -0.40459
 Alpha  occ. eigenvalues --   -0.40376  -0.38819  -0.38682  -0.37499  -0.37403
 Alpha  occ. eigenvalues --   -0.35213  -0.35209  -0.34770  -0.34704  -0.34280
 Alpha  occ. eigenvalues --   -0.34214  -0.32357  -0.32020  -0.31805  -0.31792
 Alpha  occ. eigenvalues --   -0.31510  -0.31504  -0.30374  -0.30314  -0.30178
 Alpha  occ. eigenvalues --   -0.30085  -0.29524  -0.29474  -0.28452  -0.28426
 Alpha  occ. eigenvalues --   -0.27769  -0.27724  -0.26574  -0.26564  -0.25955
 Alpha  occ. eigenvalues --   -0.25932  -0.25644  -0.25599  -0.24846  -0.24756
 Alpha  occ. eigenvalues --   -0.24720  -0.24448  -0.24315  -0.24245  -0.24098
 Alpha  occ. eigenvalues --   -0.24097  -0.22560  -0.22556  -0.21650  -0.21601
 Alpha  occ. eigenvalues --   -0.21036  -0.20745  -0.20332  -0.20229  -0.17236
 Alpha  occ. eigenvalues --   -0.16874  -0.16357  -0.16236  -0.15146  -0.15146
 Alpha  occ. eigenvalues --   -0.14052  -0.13277  -0.12461  -0.12419  -0.09941
 Alpha  occ. eigenvalues --   -0.09820  -0.04656  -0.04655  -0.04126  -0.04125
 Alpha  occ. eigenvalues --   -0.02885  -0.02421
 Alpha virt. eigenvalues --    0.04638   0.04723   0.08791   0.08884   0.09838
 Alpha virt. eigenvalues --    0.10179   0.12701   0.12709   0.15544   0.15724
 Alpha virt. eigenvalues --    0.20676   0.20736   0.26919   0.27278   0.28805
 Alpha virt. eigenvalues --    0.28857   0.33309   0.33331   0.33581   0.33715
 Alpha virt. eigenvalues --    0.35614   0.35732   0.36259   0.36476   0.36868
 Alpha virt. eigenvalues --    0.36948   0.39195   0.39206   0.40060   0.40348
 Alpha virt. eigenvalues --    0.40983   0.41246   0.42396   0.42440   0.43156
 Alpha virt. eigenvalues --    0.43381   0.44448   0.44565   0.44874   0.44896
 Alpha virt. eigenvalues --    0.45029   0.45041   0.46283   0.46323   0.47154
 Alpha virt. eigenvalues --    0.47172   0.47283   0.47460   0.47671   0.47791
 Alpha virt. eigenvalues --    0.48363   0.48391   0.48875   0.49192   0.49506
 Alpha virt. eigenvalues --    0.49985   0.50445   0.50622   0.51381   0.51521
 Alpha virt. eigenvalues --    0.52283   0.52289   0.54503   0.54533   0.56298
 Alpha virt. eigenvalues --    0.56472   0.56478   0.56612   0.58808   0.58890
 Alpha virt. eigenvalues --    0.59673   0.59777   0.60152   0.60176   0.61194
 Alpha virt. eigenvalues --    0.61210   0.63481   0.63563   0.64316   0.64316
 Alpha virt. eigenvalues --    0.66735   0.66759   0.70719   0.70752   0.74401
 Alpha virt. eigenvalues --    0.74404   0.76144   0.76145   0.78636   0.78672
 Alpha virt. eigenvalues --    0.79807   0.79861
          Condensed to atoms (all electrons):
 Mulliken charges:
               1
     1  C    6.000049
     2  C    5.999516
     3  H    0.999760
     4  C    5.999475
     5  C    6.000085
     6  N    6.999473
     7  C    6.000116
     8  H    0.999448
     9  C    5.999476
    10  H    0.999733
    11  C    6.000046
    12  C    6.000042
    13  C    5.999622
    14  H    0.999624
    15  H    0.999806
    16  H    0.999853
    17  H    0.999637
    18  H    0.999660
    19  H    0.999946
    20  H    0.999816
    21  C    6.000190
    22  H    0.999982
    23  C    5.999854
    24  H    1.000834
    25  C    5.999760
    26  O    8.000579
    27  C    6.000544
    28  C    6.000194
    29  H    1.000420
    30  C    6.000306
    31  O    8.000634
    32  C    6.000202
    33  H    1.000159
    34  C    6.000343
    35  H    1.000285
    36  H    1.000258
    37  H    1.000272
    38  C    6.000519
    39  C    6.000290
    40  C    5.999773
    41  O    8.000604
    42  C    6.000328
    43  H    1.000270
    44  C    6.000185
    45  C    5.999856
    46  H    1.000404
    47  C    6.000193
    48  H    1.000259
    49  H    1.000155
    50  C    6.000177
    51  O    8.000553
    52  H    1.000245
    53  C    5.999646
    54  H    1.000803
    55  C    6.000108
    56  H    0.999981
    57  C    5.999504
    58  C    5.999502
    59  H    0.999470
    60  C    6.000048
    61  C    6.000084
    62  H    0.999634
    63  C    5.999544
    64  H    0.999768
    65  H    0.999739
    66  N    6.999501
    67  C    6.000039
    68  C    6.000044
    69  H    0.999666
    70  H    0.999958
    71  H    0.999827
    72  H    0.999816
    73  H    0.999862
    74  H    0.999643
 Sum of Mulliken charges = 284.00000
 Mulliken charges with hydrogens summed into heavy atoms:
               1
     1  C    6.999809
     2  C    5.999516
     4  C    6.998923
     5  C    6.999818
     6  N    6.999473
     7  C    6.000116
     9  C    6.999100
    11  C    8.999342
    12  C    8.999464
    13  C    6.999604
    21  C    7.001024
    23  C    5.999854
    25  C    5.999760
    26  O    8.000579
    27  C    6.000544
    28  C    7.000353
    30  C    7.000591
    31  O    9.001053
    32  C    7.000460
    34  C    7.000615
    38  C    6.000519
    39  C    7.000560
    40  C    5.999773
    41  O    9.001008
    42  C    7.000587
    44  C    7.000340
    45  C    5.999856
    47  C    7.000438
    50  C    7.000979
    51  O    8.000553
    53  C    6.999627
    55  C    6.000108
    57  C    6.998974
    58  C    6.999136
    60  C    6.999816
    61  C    6.999823
    63  C    5.999544
    66  N    6.999501
    67  C    8.999491
    68  C    8.999366
 Electronic spatial extent (au):  <R**2>=             -2.3266
 Charge=              0.0000 electrons
 Dipole moment (field-independent basis, Debye):
    X=              0.0071    Y=              0.0028    Z=             -0.0043  Tot=              0.0087
 Quadrupole moment (field-independent basis, Debye-Ang):
   XX=              1.8205   YY=              0.0779   ZZ=              1.2310
   XY=              0.8673   XZ=             -1.2125   YZ=             -0.6830
 Traceless Quadrupole moment (field-independent basis, Debye-Ang):
   XX=              0.7774   YY=             -0.9652   ZZ=              0.1878
   XY=              0.8673   XZ=             -1.2125   YZ=             -0.6830
 Octapole moment (field-independent basis, Debye-Ang**2):
  XXX=              0.4011  YYY=             -1.4117  ZZZ=             -0.1596  XYY=             -9.0700
  XXY=             -9.2410  XXZ=             -0.1960  XZZ=              0.1451  YZZ=             -6.2664
  YYZ=              7.1228  XYZ=              6.1644
 Hexadecapole moment (field-independent basis, Debye-Ang**3):
 XXXX=            126.7053 YYYY=             15.9529 ZZZZ=             43.4809 XXXY=             41.1806
 XXXZ=            -65.0742 YYYX=             74.9334 YYYZ=            -56.8637 ZZZX=            -35.3725
 ZZZY=            -13.7606 XXYY=             59.7359 XXZZ=             40.5329 YYZZ=             34.3787
 XXYZ=            -19.5319 YYXZ=            -36.3475 ZZXY=             13.7274
 N-N= 4.151978653381D+03 E-N=-6.604679649320D-02  KE=-5.665843917665D-03
 Leave Link  601 at Fri Aug 10 23:23:29 2018, MaxMem=  1879048192 cpu:         0.2
 (Enter /share/apps/gaussian/g09_D01/g09/l9999.exe)

 This type of calculation cannot be archived.


 IT PROBABLY IS NOT POSSIBLE FOR A SCIENTIST TO INTERROGATE NATURE 
 FROM A WHOLLY DISINTERESTED VIEWPOINT.
 EVEN IF HE HAS NO PARTICULAR AXE TO GRIND, HE IS LIKELY TO HAVE 
 A DISTINCTIVE WAY OF VIEWING NATURE.

                                                   -- JOHN LOSEE
 Job cpu time:       0 days  0 hours  0 minutes  9.3 seconds.
 File lengths (MBytes):  RWF=      9 Int=      0 D2E=      0 Chk=     72 Scr=      1
 Normal termination of Gaussian 09 at Fri Aug 10 23:23:29 2018.
