 Entering Gaussian System, Link 0=g09
 Input=2hc_1_rel-mega_dimer_0_mon-1.com
 Output=2hc_1_rel-mega_dimer_0_mon-1.com.log
 Initial command:
 /share/apps/gaussian/g09_D01/g09/l1.exe "/tmp/207328.1.all.q/Gau-27985.inp" -scrdir="/tmp/207328.1.all.q/"
 Entering Link 1 = /share/apps/gaussian/g09_D01/g09/l1.exe PID=     28122.
  
 Copyright (c) 1988,1990,1992,1993,1995,1998,2003,2009,2013,
            Gaussian, Inc.  All Rights Reserved.
  
 This is part of the Gaussian(R) 09 program.  It is based on
 the Gaussian(R) 03 system (copyright 2003, Gaussian, Inc.),
 the Gaussian(R) 98 system (copyright 1998, Gaussian, Inc.),
 the Gaussian(R) 94 system (copyright 1995, Gaussian, Inc.),
 the Gaussian 92(TM) system (copyright 1992, Gaussian, Inc.),
 the Gaussian 90(TM) system (copyright 1990, Gaussian, Inc.),
 the Gaussian 88(TM) system (copyright 1988, Gaussian, Inc.),
 the Gaussian 86(TM) system (copyright 1986, Carnegie Mellon
 University), and the Gaussian 82(TM) system (copyright 1983,
 Carnegie Mellon University). Gaussian is a federally registered
 trademark of Gaussian, Inc.
  
 This software contains proprietary and confidential information,
 including trade secrets, belonging to Gaussian, Inc.
  
 This software is provided under written license and may be
 used, copied, transmitted, or stored only in accord with that
 written license.
  
 The following legend is applicable only to US Government
 contracts under FAR:
  
                    RESTRICTED RIGHTS LEGEND
  
 Use, reproduction and disclosure by the US Government is
 subject to restrictions as set forth in subparagraphs (a)
 and (c) of the Commercial Computer Software - Restricted
 Rights clause in FAR 52.227-19.
  
 Gaussian, Inc.
 340 Quinnipiac St., Bldg. 40, Wallingford CT 06492
  
  
 ---------------------------------------------------------------
 Warning -- This program may not be used in any manner that
 competes with the business of Gaussian, Inc. or will provide
 assistance to any competitor of Gaussian, Inc.  The licensee
 of this program is prohibited from giving any competitor of
 Gaussian, Inc. access to this program.  By using this program,
 the user acknowledges that Gaussian, Inc. is engaged in the
 business of creating and licensing software in the field of
 computational chemistry and represents and warrants to the
 licensee that it is not a competitor of Gaussian, Inc. and that
 it will not use this program in any manner prohibited above.
 ---------------------------------------------------------------
  

 Cite this work as:
 Gaussian 09, Revision D.01,
 M. J. Frisch, G. W. Trucks, H. B. Schlegel, G. E. Scuseria, 
 M. A. Robb, J. R. Cheeseman, G. Scalmani, V. Barone, B. Mennucci, 
 G. A. Petersson, H. Nakatsuji, M. Caricato, X. Li, H. P. Hratchian, 
 A. F. Izmaylov, J. Bloino, G. Zheng, J. L. Sonnenberg, M. Hada, 
 M. Ehara, K. Toyota, R. Fukuda, J. Hasegawa, M. Ishida, T. Nakajima, 
 Y. Honda, O. Kitao, H. Nakai, T. Vreven, J. A. Montgomery, Jr., 
 J. E. Peralta, F. Ogliaro, M. Bearpark, J. J. Heyd, E. Brothers, 
 K. N. Kudin, V. N. Staroverov, T. Keith, R. Kobayashi, J. Normand, 
 K. Raghavachari, A. Rendell, J. C. Burant, S. S. Iyengar, J. Tomasi, 
 M. Cossi, N. Rega, J. M. Millam, M. Klene, J. E. Knox, J. B. Cross, 
 V. Bakken, C. Adamo, J. Jaramillo, R. Gomperts, R. E. Stratmann, 
 O. Yazyev, A. J. Austin, R. Cammi, C. Pomelli, J. W. Ochterski, 
 R. L. Martin, K. Morokuma, V. G. Zakrzewski, G. A. Voth, 
 P. Salvador, J. J. Dannenberg, S. Dapprich, A. D. Daniels, 
 O. Farkas, J. B. Foresman, J. V. Ortiz, J. Cioslowski, 
 and D. J. Fox, Gaussian, Inc., Wallingford CT, 2013.
 
 ******************************************
 Gaussian 09:  ES64L-G09RevD.01 24-Apr-2013
                29-Jan-2018 
 ******************************************
 %chk=2hc_1_rel-mega_dimer_0_mon-1.chk
 %nproc=2
 Will use up to    2 processors via shared memory.
 %mem=14GB
 ------------------------------------------
 #p wb97xd 6-311++G** td=(nstates=4) nosymm
 ------------------------------------------
 1/38=1/1;
 2/12=2,15=1,17=6,18=5,40=1/2;
 3/5=4,6=6,7=1111,11=9,16=1,25=1,30=1,74=-58/1,2,8,3;
 4//1;
 5/5=2,38=5/2;
 8/6=1,10=2,108=4/1;
 9/41=4,42=1,70=2/14;
 6/7=2,8=2,9=2,10=2/1;
 99/5=1,9=1/99;
 Leave Link    1 at Mon Jan 29 13:05:59 2018, MaxMem=  1879048192 cpu:         0.1
 (Enter /share/apps/gaussian/g09_D01/g09/l101.exe)
 -----
 Title
 -----
 Symbolic Z-matrix:
 Charge =  0 Multiplicity = 1
 C                    -7.19644  -6.8405    4.50546 
 C                    -8.44931  -7.42293   4.2561 
 C                    -6.11603  -7.04369   3.59483 
 O                    -7.03904  -6.08673   5.6112 
 C                    -8.64194  -8.21945   3.13706 
 H                    -9.25731  -7.21587   4.95777 
 C                    -6.35306  -7.86612   2.473 
 C                    -4.82425  -6.38093   3.86262 
 H                    -6.04768  -5.75609   5.53026 
 C                    -7.5888   -8.45099   2.24194 
 H                    -9.61958  -8.66541   2.9473 
 H                    -5.55265  -8.06317   1.76161 
 C                    -3.70418  -6.55496   2.97634 
 O                    -4.72679  -5.64097   4.90867 
 H                    -7.73762  -9.08887   1.37118 
 C                    -2.5213   -5.88807   3.16445 
 H                    -3.81017  -7.24232   2.1395 
 C                    -1.3206   -6.0145    2.39922 
 H                    -2.47843  -5.19305   4.01001 
 C                    -1.14661  -6.94948   1.34859 
 C                    -0.20216  -5.21023   2.72529 
 H                    -1.97111  -7.6028    1.06047 
 C                     0.0456   -7.07236   0.67304 
 C                     0.99793  -5.31005   2.05567 
 H                    -0.29953  -4.49271   3.54133 
 C                     1.16356  -6.24745   0.99906 
 H                     0.12129  -7.80971  -0.12188 
 H                     1.8261   -4.67311   2.35623 
 N                     2.33745  -6.35184   0.32458 
 C                     2.48278  -7.33387  -0.73861 
 C                     3.45104  -5.46741   0.63829 
 H                     2.29016  -8.35159  -0.36524 
 H                     3.50245  -7.29372  -1.13259 
 H                     1.7832   -7.13262  -1.56346 
 H                     3.15029  -4.41243   0.54965 
 H                     4.26893  -5.65856  -0.06324 
 H                     3.81896  -5.63608   1.66218 
 
 NAtoms=     37 NQM=       37 NQMF=       0 NMMI=      0 NMMIF=      0
                NMic=       0 NMicF=      0.
                    Isotopes and Nuclear Properties:
 (Nuclear quadrupole moments (NQMom) in fm**2, nuclear magnetic moments (NMagM)
  in nuclear magnetons)

  Atom         1           2           3           4           5           6           7           8           9          10
 IAtWgt=          12          12          12          16          12           1          12          12           1          12
 AtmWgt=  12.0000000  12.0000000  12.0000000  15.9949146  12.0000000   1.0078250  12.0000000  12.0000000   1.0078250  12.0000000
 NucSpn=           0           0           0           0           0           1           0           0           1           0
 AtZEff=   0.0000000   0.0000000   0.0000000   0.0000000   0.0000000   0.0000000   0.0000000   0.0000000   0.0000000   0.0000000
 NQMom=    0.0000000   0.0000000   0.0000000   0.0000000   0.0000000   0.0000000   0.0000000   0.0000000   0.0000000   0.0000000
 NMagM=    0.0000000   0.0000000   0.0000000   0.0000000   0.0000000   2.7928460   0.0000000   0.0000000   2.7928460   0.0000000
 AtZNuc=   6.0000000   6.0000000   6.0000000   8.0000000   6.0000000   1.0000000   6.0000000   6.0000000   1.0000000   6.0000000

  Atom        11          12          13          14          15          16          17          18          19          20
 IAtWgt=           1           1          12          16           1          12           1          12           1          12
 AtmWgt=   1.0078250   1.0078250  12.0000000  15.9949146   1.0078250  12.0000000   1.0078250  12.0000000   1.0078250  12.0000000
 NucSpn=           1           1           0           0           1           0           1           0           1           0
 AtZEff=   0.0000000   0.0000000   0.0000000   0.0000000   0.0000000   0.0000000   0.0000000   0.0000000   0.0000000   0.0000000
 NQMom=    0.0000000   0.0000000   0.0000000   0.0000000   0.0000000   0.0000000   0.0000000   0.0000000   0.0000000   0.0000000
 NMagM=    2.7928460   2.7928460   0.0000000   0.0000000   2.7928460   0.0000000   2.7928460   0.0000000   2.7928460   0.0000000
 AtZNuc=   1.0000000   1.0000000   6.0000000   8.0000000   1.0000000   6.0000000   1.0000000   6.0000000   1.0000000   6.0000000

  Atom        21          22          23          24          25          26          27          28          29          30
 IAtWgt=          12           1          12          12           1          12           1           1          14          12
 AtmWgt=  12.0000000   1.0078250  12.0000000  12.0000000   1.0078250  12.0000000   1.0078250   1.0078250  14.0030740  12.0000000
 NucSpn=           0           1           0           0           1           0           1           1           2           0
 AtZEff=   0.0000000   0.0000000   0.0000000   0.0000000   0.0000000   0.0000000   0.0000000   0.0000000   0.0000000   0.0000000
 NQMom=    0.0000000   0.0000000   0.0000000   0.0000000   0.0000000   0.0000000   0.0000000   0.0000000   2.0440000   0.0000000
 NMagM=    0.0000000   2.7928460   0.0000000   0.0000000   2.7928460   0.0000000   2.7928460   2.7928460   0.4037610   0.0000000
 AtZNuc=   6.0000000   1.0000000   6.0000000   6.0000000   1.0000000   6.0000000   1.0000000   1.0000000   7.0000000   6.0000000

  Atom        31          32          33          34          35          36          37
 IAtWgt=          12           1           1           1           1           1           1
 AtmWgt=  12.0000000   1.0078250   1.0078250   1.0078250   1.0078250   1.0078250   1.0078250
 NucSpn=           0           1           1           1           1           1           1
 AtZEff=   0.0000000   0.0000000   0.0000000   0.0000000   0.0000000   0.0000000   0.0000000
 NQMom=    0.0000000   0.0000000   0.0000000   0.0000000   0.0000000   0.0000000   0.0000000
 NMagM=    0.0000000   2.7928460   2.7928460   2.7928460   2.7928460   2.7928460   2.7928460
 AtZNuc=   6.0000000   1.0000000   1.0000000   1.0000000   1.0000000   1.0000000   1.0000000
 Leave Link  101 at Mon Jan 29 13:06:00 2018, MaxMem=  1879048192 cpu:         0.1
 (Enter /share/apps/gaussian/g09_D01/g09/l202.exe)
                          Input orientation:                          
 ---------------------------------------------------------------------
 Center     Atomic      Atomic             Coordinates (Angstroms)
 Number     Number       Type             X           Y           Z
 ---------------------------------------------------------------------
      1          6           0       -7.196442   -6.840499    4.505462
      2          6           0       -8.449309   -7.422935    4.256097
      3          6           0       -6.116034   -7.043692    3.594826
      4          8           0       -7.039043   -6.086733    5.611203
      5          6           0       -8.641938   -8.219449    3.137063
      6          1           0       -9.257309   -7.215866    4.957770
      7          6           0       -6.353060   -7.866116    2.472996
      8          6           0       -4.824246   -6.380928    3.862622
      9          1           0       -6.047680   -5.756085    5.530263
     10          6           0       -7.588796   -8.450990    2.241936
     11          1           0       -9.619575   -8.665408    2.947296
     12          1           0       -5.552651   -8.063173    1.761606
     13          6           0       -3.704178   -6.554956    2.976342
     14          8           0       -4.726790   -5.640966    4.908668
     15          1           0       -7.737618   -9.088866    1.371175
     16          6           0       -2.521300   -5.888071    3.164452
     17          1           0       -3.810174   -7.242315    2.139497
     18          6           0       -1.320601   -6.014497    2.399224
     19          1           0       -2.478430   -5.193048    4.010013
     20          6           0       -1.146607   -6.949476    1.348586
     21          6           0       -0.202155   -5.210226    2.725294
     22          1           0       -1.971105   -7.602804    1.060473
     23          6           0        0.045604   -7.072357    0.673042
     24          6           0        0.997930   -5.310047    2.055673
     25          1           0       -0.299533   -4.492713    3.541330
     26          6           0        1.163557   -6.247449    0.999056
     27          1           0        0.121292   -7.809712   -0.121883
     28          1           0        1.826104   -4.673106    2.356233
     29          7           0        2.337452   -6.351839    0.324578
     30          6           0        2.482783   -7.333867   -0.738608
     31          6           0        3.451039   -5.467412    0.638287
     32          1           0        2.290163   -8.351594   -0.365237
     33          1           0        3.502452   -7.293717   -1.132587
     34          1           0        1.783202   -7.132620   -1.563458
     35          1           0        3.150286   -4.412434    0.549647
     36          1           0        4.268925   -5.658559   -0.063239
     37          1           0        3.818959   -5.636076    1.662178
 ---------------------------------------------------------------------
                    Distance matrix (angstroms):
                    1          2          3          4          5
     1  C    0.000000
     2  C    1.403955   0.000000
     3  C    1.427525   2.454644   0.000000
     4  O    1.347442   2.368670   2.415262   0.000000
     5  C    2.421462   1.387003   2.823498   3.638560   0.000000
     6  H    2.143048   1.089994   3.428537   2.573445   2.168141
     7  C    2.427777   2.787493   1.411051   3.672209   2.409314
     8  C    2.500353   3.792319   1.476376   2.837149   4.298996
     9  H    1.883036   3.188998   2.325623   1.048179   4.304154
    10  C    2.805561   2.419550   2.445368   4.152577   1.401418
    11  H    3.410242   2.150865   3.914595   4.517202   1.091176
    12  H    3.424285   3.875954   2.171966   4.575486   3.385262
    13  C    3.823042   4.990734   2.537407   4.275868   5.213237
    14  O    2.775002   4.178326   2.371459   2.457392   5.011541
    15  H    3.895097   3.406553   3.428833   5.242008   2.166112
    16  C    4.956045   6.220031   3.800368   5.141601   6.549678
    17  H    4.150429   5.102371   2.733939   4.879929   5.029500
    18  C    6.296350   7.500010   5.048256   6.559162   7.681679
    19  H    5.021872   6.378428   4.102368   4.915452   6.921703
    20  C    6.824826   7.874468   5.454326   7.323594   7.809703
    21  C    7.399111   8.674963   6.252331   7.472601   8.969666
    22  H    6.305014   7.225752   4.890398   6.977937   7.013736
    23  C    8.196855   9.226307   6.819342   8.691899   9.102780
    24  C    8.688583   9.927562   7.482179   8.822583  10.127244
    25  H    7.349082   8.689991   6.351538   7.228158   9.145912
    26  C    9.084942  10.217499   7.769458   9.411715  10.227785
    27  H    8.712114   9.631797   7.301024   9.333131   9.358569
    28  H    9.524868  10.805330   8.380414   9.549031  11.079989
    29  N   10.421790  11.530755   9.090358  10.767420  11.486733
    30  C   11.019577  12.019386   9.633406  11.512628  11.813742
    31  C   11.410927  12.590906  10.136798  11.625630  12.651391
    32  H   10.770459  11.728401   9.383861  11.308471  11.480174
    33  H   12.102039  13.111034  10.720365  12.572137  12.906320
    34  H   10.842100  11.775219   9.434709  11.419354  11.487369
    35  H   11.340139  12.543982  10.102540  11.499785  12.658777
    36  H   12.398575  13.547072  11.097180  12.659098  13.545866
    37  H   11.440016  12.666163  10.218640  11.562616  12.811052
                    6          7          8          9         10
     6  H    0.000000
     7  C    3.877059   0.000000
     8  C    4.642038   2.544428   0.000000
     9  H    3.572174   3.727247   2.160612   0.000000
    10  C    3.418365   1.386546   3.815038   4.522239   0.000000
    11  H    2.504878   3.396167   5.389977   5.281507   2.160456
    12  H    4.965671   1.088835   2.788331   4.446401   2.127676
    13  C    5.932969   2.998178   1.438864   3.557065   4.384581
    14  O    4.796699   3.678117   1.285011   1.464371   4.816510
    15  H    4.322182   2.150844   4.693397   5.591183   1.089614
    16  C    7.095974   4.367283   2.456402   4.248510   5.753182
    17  H    6.133078   2.639435   2.177037   4.325807   3.968548
    18  C    8.425009   5.362796   3.814621   5.675866   6.726924
    19  H    7.137453   4.951815   2.633560   3.920168   6.313171
    20  C    8.881478   5.404783   4.490952   6.552184   6.674910
    21  C    9.539515   6.704554   4.901814   6.506610   8.080758
    22  H    8.272086   4.611516   4.181559   6.325176   5.802907
    23  C   10.243226   6.694235   5.862332   7.902739   7.914930
    24  C   10.827014   7.793889   6.189474   7.868440   9.145058
    25  H    9.469087   7.011874   4.913411   6.212339   8.395817
    26  C   11.189446   7.828928   6.638645   8.530839   9.110655
    27  H   10.682401   6.975228   6.509689   8.615124   8.089767
    28  H   11.665148   8.781097   7.029439   8.558258  10.145236
    29  N   12.516049   9.079302   7.988024   9.887594  10.325362
    30  C   13.049613   9.416465   8.687467  10.703128  10.562590
    31  C   13.535772  10.258669   8.928112  10.688331  11.547787
    32  H   12.765907   9.110245   8.507240  10.536281  10.217684
    33  H   14.138954  10.509947   9.752907  11.745761  11.650857
    34  H   12.822879   9.112065   8.582876  10.655442  10.200660
    35  H   13.462511  10.292754   8.856858  10.545829  11.597485
    36  H   14.511883  11.141470   9.930758  11.735805  12.398268
    37  H   13.577387  10.445117   8.949958  10.598446  11.764214
                   11         12         13         14         15
    11  H    0.000000
    12  H    4.278834   0.000000
    13  C    6.280667   2.677154   0.000000
    14  O    6.077300   4.056246   2.369598   0.000000
    15  H    2.491031   2.445110   5.026520   5.785063   0.000000
    16  C    7.625370   3.985992   1.370883   2.822682   6.377374
    17  H    6.035468   1.962864   1.088121   3.327583   4.407367
    18  C    8.729300   4.744879   2.511295   4.247229   7.189349
    19  H    8.011405   4.769045   2.103741   2.462384   7.056906
    20  C    8.791557   4.563346   3.057189   5.215754   6.929569
    21  C   10.033712   6.139691   3.759719   5.042319   8.582581
    22  H    7.949108   3.678451   2.787845   5.123594   5.963018
    23  C   10.056129   5.788536   4.431000   6.539507   8.070455
    24  C   11.170714   7.111701   4.950480   6.404803   9.542422
    25  H   10.228756   6.596276   4.020406   4.773751   9.008846
    26  C   11.221323   6.998985   5.262990   7.095708   9.351098
    27  H   10.248735   5.983762   5.080121   7.315313   8.101106
    28  H   12.136367   8.142000   5.874514   7.098739  10.579889
    29  N   12.457999   8.200454   6.601091   8.451197  10.492555
    30  C   12.721083   8.446961   7.258515   9.313194  10.582429
    31  C   13.652826   9.437492   7.605681   9.227305  11.782958
    32  H   12.365808   8.131198   7.094095   9.186904  10.203680
    33  H   13.809945   9.537469   8.328540  10.341604  11.654637
    34  H   12.357980   8.107818   7.145265   9.300185  10.153078
    35  H   13.671352   9.515138   7.580430   9.086181  11.878147
    36  H   14.525663  10.274998   8.579799  10.278281  12.569074
    37  H   13.835555   9.681310   7.692136   9.141638  12.064863
                   16         17         18         19         20
    16  C    0.000000
    17  H    2.132066   0.000000
    18  C    1.429418   2.788004   0.000000
    19  H    1.095385   3.077640   2.147088   0.000000
    20  C    2.512714   2.793901   1.417145   3.455718   0.000000
    21  C    2.455762   4.182146   1.415661   2.613853   2.410872
    22  H    2.769432   2.162503   2.176724   3.842407   1.090708
    23  C    3.768110   4.128729   2.442394   4.586712   1.375800
    24  C    3.734767   5.182524   2.447420   3.989763   2.790473
    25  H    2.650530   4.674403   2.159355   2.336177   3.400198
    26  C    4.289087   5.198881   2.861080   4.841662   2.439646
    27  H    4.634220   4.570799   3.414357   5.538777   2.123641
    28  H    4.585769   6.198019   3.420955   4.640511   3.877399
    29  N    5.646896   6.471490   4.218923   6.173973   3.680276
    30  C    6.508844   6.920490   5.104161   7.193479   4.204356
    31  C    6.498253   7.624246   5.115540   6.826596   4.882559
    32  H    6.455837   6.687175   5.112913   7.201299   4.088339
    33  H    7.531665   8.011471   6.113259   8.162726   5.280954
    34  H    6.513891   6.708932   5.156223   7.279219   4.134891
    35  H    6.417289   7.680095   5.096702   6.653265   5.053531
    36  H    7.521823   8.522451   6.118269   7.895244   5.743492
    37  H    6.520676   7.810986   5.205912   6.735407   5.145892
                   21         22         23         24         25
    21  C    0.000000
    22  H    3.409581   0.000000
    23  C    2.782203   2.120988   0.000000
    24  C    1.377883   3.881021   2.433995   0.000000
    25  H    1.090973   4.315260   3.873081   2.135093   0.000000
    26  C    2.433290   3.415679   1.427087   1.422179   3.418024
    27  H    3.868897   2.412240   1.086889   3.429077   4.959708
    28  H    2.130385   4.967990   3.429244   1.087153   2.440354
    29  N    3.676455   4.546440   2.427579   2.424116   4.556044
    30  C    4.870047   4.811043   2.828601   3.756147   5.842201
    31  C    4.215159   5.842755   3.764843   2.837515   4.841951
    32  H    5.062729   4.555408   2.784334   4.096545   6.071141
    33  H    5.740060   5.904648   3.906289   4.513599   6.644262
    34  H    5.102023   4.604444   2.832810   4.127534   6.112753
    35  H    4.075386   6.055415   4.090167   2.776051   4.567041
    36  H    5.288428   6.631802   4.514131   3.912883   5.934890
    37  H    4.181019   6.144502   4.156862   2.866939   4.669097
                   26         27         28         29         30
    26  C    0.000000
    27  H    2.187118   0.000000
    28  H    2.181617   4.345773   0.000000
    29  N    1.357883   2.689997   2.684631   0.000000
    30  C    2.437240   2.486648   4.133874   1.454601   0.000000
    31  C    2.443601   4.141430   2.494529   1.456262   2.513367
    32  H    2.749175   2.248746   4.599242   2.115916   1.101034
    33  H    3.333018   3.566513   4.674357   2.089902   1.093872
    34  H    2.781001   2.301855   4.627637   2.116953   1.100132
    35  H    2.741595   4.600789   2.255030   2.114863   3.261891
    36  H    3.334452   4.672661   3.576638   2.088451   2.540292
    37  H    2.804401   4.645461   2.319589   2.120461   3.229804
                   31         32         33         34         35
    31  C    0.000000
    32  H    3.266986   0.000000
    33  H    2.544411   1.782575   0.000000
    34  H    3.225256   1.782874   1.779725   0.000000
    35  H    1.100585   4.134466   3.354955   3.705880   0.000000
    36  H    1.094355   3.355464   2.098744   3.256122   1.783202
    37  H    1.100984   3.717750   3.264761   4.097399   1.783858
                   36         37
    36  H    0.000000
    37  H    1.783266   0.000000
 Symmetry turned off by external request.
 Stoichiometry    C17H17NO2
 Framework group  C1[X(C17H17NO2)]
 Deg. of freedom   105
 Full point group                 C1      NOp   1
 Rotational constants (GHZ):      1.0904253      0.1072611      0.0979095
 Leave Link  202 at Mon Jan 29 13:06:00 2018, MaxMem=  1879048192 cpu:         0.0
 (Enter /share/apps/gaussian/g09_D01/g09/l301.exe)
 Standard basis: 6-311++G(d,p) (5D, 7F)
 Ernie: Thresh=  0.10000D-02 Tol=  0.10000D-05 Strict=F.
   559 basis functions,   873 primitive gaussians,   579 cartesian basis functions
    71 alpha electrons       71 beta electrons
       nuclear repulsion energy      1358.4110009206 Hartrees.
 IExCor= 4639 DFT=T Ex+Corr=wB97XD ExCW=0 ScaHFX=  1.000000
 ScaDFX=  1.000000  1.000000  1.000000  1.000000 ScalE2=  1.000000  1.000000
 IRadAn=      0 IRanWt=     -1 IRanGd=            0 ICorTp=0 IEmpDi=121
  HFx wShort=  0.000000 wLong=  0.200000 cFull=  0.222036 cShort=  0.000000 cLong=  0.777964
  DFx wShort=  0.000000 wLong=  0.200000 cFull=  0.000000 cShort=  0.000000 cLong=  1.000000
 NAtoms=   37 NActive=   37 NUniq=   37 SFac= 1.00D+00 NAtFMM=   60 NAOKFM=F Big=F
 Integral buffers will be    131072 words long.
 Raffenetti 1 integral format.
 Two-electron integral symmetry is turned off.
 R6Disp:  Grimme-D2 Dispersion energy=       -0.0228555467 Hartrees.
 Nuclear repulsion after empirical dispersion term =     1358.3881453739 Hartrees.
 Leave Link  301 at Mon Jan 29 13:06:00 2018, MaxMem=  1879048192 cpu:         0.1
 (Enter /share/apps/gaussian/g09_D01/g09/l302.exe)
 NPDir=0 NMtPBC=     1 NCelOv=     1 NCel=       1 NClECP=     1 NCelD=      1
         NCelK=      1 NCelE2=     1 NClLst=     1 CellRange=     0.0.
 One-electron integrals computed using PRISM.
 NBasis=   559 RedAO= T EigKep=  1.16D-06  NBF=   559
 NBsUse=   553 1.00D-06 EigRej=  5.34D-07 NBFU=   553
 Precomputing XC quadrature grid using
 IXCGrd= 4 IRadAn=           0 IRanWt=          -1 IRanGd=           0 AccXCQ= 0.00D+00.
 Generated NRdTot=       0 NPtTot=           0 NUsed=           0 NTot=          32
 NSgBfM=   560   560   562   565   565 MxSgAt=    37 MxSgA2=    37.
 Leave Link  302 at Mon Jan 29 13:06:01 2018, MaxMem=  1879048192 cpu:         1.9
 (Enter /share/apps/gaussian/g09_D01/g09/l308.exe)
 Leave Link  308 at Mon Jan 29 13:06:01 2018, MaxMem=  1879048192 cpu:         0.2
 (Enter /share/apps/gaussian/g09_D01/g09/l303.exe)
 DipDrv:  MaxL=1.
 Leave Link  303 at Mon Jan 29 13:06:02 2018, MaxMem=  1879048192 cpu:         0.1
 (Enter /share/apps/gaussian/g09_D01/g09/l401.exe)
 ExpMin= 3.60D-02 ExpMax= 8.59D+03 ExpMxC= 1.30D+03 IAcc=3 IRadAn=         5 AccDes= 0.00D+00
 Harris functional with IExCor= 4639 and IRadAn=       5 diagonalized for initial guess.
 HarFok:  IExCor= 4639 AccDes= 0.00D+00 IRadAn=         5 IDoV= 1 UseB2=F ITyADJ=14
 ICtDFT=  3500011 ScaDFX=  1.000000  1.000000  1.000000  1.000000
 FoFCou: FMM=F IPFlag=           0 FMFlag=      100000 FMFlg1=           0
         NFxFlg=           0 DoJE=T BraDBF=F KetDBF=T FulRan=T
         wScrn=  0.000000 ICntrl=     500 IOpCl=  0 I1Cent=   200000004 NGrid=           0
         NMat0=    1 NMatS0=      1 NMatT0=    0 NMatD0=    1 NMtDS0=    0 NMtDT0=    0
 Symmetry not used in FoFCou.
 Harris En= -825.474436414887    
 JPrj=0 DoOrth=F DoCkMO=F.
 Leave Link  401 at Mon Jan 29 13:06:21 2018, MaxMem=  1879048192 cpu:        38.8
 (Enter /share/apps/gaussian/g09_D01/g09/l502.exe)
 Closed shell SCF:
 Using DIIS extrapolation, IDIIS=  1040.
 Two-electron integral symmetry not used.
 IVT=     1031295 IEndB=     1031295 NGot=  1879048192 MDV=  1878369358
 LenX=  1878369358 LenY=  1878033538
 Requested convergence on RMS density matrix=1.00D-08 within 128 cycles.
 Requested convergence on MAX density matrix=1.00D-06.
 Requested convergence on             energy=1.00D-06.
 No special actions if energy rises.
 Fock matrices will be formed incrementally for  20 cycles.

 Cycle   1  Pass 1  IDiag  1:
 FoFJK:  IHMeth= 1 ICntrl=       0 DoSepK=T KAlg= 0 I1Cent=   0 FoldK=F
 IRaf=         1 NMat=   1 IRICut=       1 DoRegI=T DoRafI=F ISym2E= 0.
 FoFCou: FMM=F IPFlag=           0 FMFlag=      100000 FMFlg1=           0
         NFxFlg=           0 DoJE=T BraDBF=F KetDBF=F FulRan=T
         wScrn=  0.000000 ICntrl=     500 IOpCl=  0 I1Cent=           0 NGrid=           0
         NMat0=    1 NMatS0=      1 NMatT0=    0 NMatD0=    1 NMtDS0=    0 NMtDT0=    0
 Symmetry not used in FoFCou.
 E= -862.876316719038    
 DIIS: error= 5.79D-02 at cycle   1 NSaved=   1.
 NSaved= 1 IEnMin= 1 EnMin= -862.876316719038     IErMin= 1 ErrMin= 5.79D-02
 ErrMax= 5.79D-02  0.00D+00 EMaxC= 1.00D-01 BMatC= 1.87D+00 BMatP= 1.87D+00
 IDIUse=3 WtCom= 4.21D-01 WtEn= 5.79D-01
 Coeff-Com:  0.100D+01
 Coeff-En:   0.100D+01
 Coeff:      0.100D+01
 Gap=     0.280 Goal=   None    Shift=    0.000
 GapD=    0.280 DampG=1.000 DampE=0.500 DampFc=0.5000 IDamp=-1.
 Damping current iteration by 5.00D-01
 RMSDP=2.62D-02 MaxDP=3.00D+00              OVMax= 1.99D-01

 Cycle   2  Pass 1  IDiag  1:
 RMSU=  5.50D-03    CP:  8.54D-01
 E= -863.003517649962     Delta-E=       -0.127200930924 Rises=F Damp=T
 DIIS: error= 2.68D-02 at cycle   2 NSaved=   2.
 NSaved= 2 IEnMin= 2 EnMin= -863.003517649962     IErMin= 2 ErrMin= 2.68D-02
 ErrMax= 2.68D-02  0.00D+00 EMaxC= 1.00D-01 BMatC= 3.94D-01 BMatP= 1.87D+00
 IDIUse=3 WtCom= 7.32D-01 WtEn= 2.68D-01
 Coeff-Com: -0.579D+00 0.158D+01
 Coeff-En:   0.000D+00 0.100D+01
 Coeff:     -0.424D+00 0.142D+01
 Gap=     0.275 Goal=   None    Shift=    0.000
 RMSDP=1.47D-02 MaxDP=1.58D+00 DE=-1.27D-01 OVMax= 2.24D-01

 Cycle   3  Pass 1  IDiag  1:
 RMSU=  5.36D-03    CP:  6.88D-01  1.41D+00
 E= -863.048911558069     Delta-E=       -0.045393908107 Rises=F Damp=F
 DIIS: error= 2.40D-02 at cycle   3 NSaved=   3.
 NSaved= 3 IEnMin= 3 EnMin= -863.048911558069     IErMin= 3 ErrMin= 2.40D-02
 ErrMax= 2.40D-02  0.00D+00 EMaxC= 1.00D-01 BMatC= 1.31D-01 BMatP= 3.94D-01
 IDIUse=3 WtCom= 7.60D-01 WtEn= 2.40D-01
 Coeff-Com: -0.377D+00 0.809D+00 0.567D+00
 Coeff-En:   0.000D+00 0.252D+00 0.748D+00
 Coeff:     -0.286D+00 0.676D+00 0.611D+00
 Gap=     0.271 Goal=   None    Shift=    0.000
 RMSDP=4.77D-03 MaxDP=3.63D-01 DE=-4.54D-02 OVMax= 1.10D-01

 Cycle   4  Pass 1  IDiag  1:
 RMSU=  1.79D-03    CP:  6.50D-01  1.56D+00  4.30D-01
 E= -863.152347915612     Delta-E=       -0.103436357543 Rises=F Damp=F
 DIIS: error= 5.27D-03 at cycle   4 NSaved=   4.
 NSaved= 4 IEnMin= 4 EnMin= -863.152347915612     IErMin= 4 ErrMin= 5.27D-03
 ErrMax= 5.27D-03  0.00D+00 EMaxC= 1.00D-01 BMatC= 1.21D-02 BMatP= 1.31D-01
 IDIUse=3 WtCom= 9.47D-01 WtEn= 5.27D-02
 Coeff-Com: -0.142D+00 0.307D+00 0.348D+00 0.487D+00
 Coeff-En:   0.000D+00 0.000D+00 0.178D-01 0.982D+00
 Coeff:     -0.135D+00 0.291D+00 0.331D+00 0.513D+00
 Gap=     0.239 Goal=   None    Shift=    0.000
 RMSDP=1.29D-03 MaxDP=1.22D-01 DE=-1.03D-01 OVMax= 2.51D-02

 Cycle   5  Pass 1  IDiag  1:
 RMSU=  4.78D-04    CP:  6.61D-01  1.60D+00  5.58D-01  7.59D-01
 E= -863.162204263087     Delta-E=       -0.009856347475 Rises=F Damp=F
 DIIS: error= 7.43D-04 at cycle   5 NSaved=   5.
 NSaved= 5 IEnMin= 5 EnMin= -863.162204263087     IErMin= 5 ErrMin= 7.43D-04
 ErrMax= 7.43D-04  0.00D+00 EMaxC= 1.00D-01 BMatC= 1.77D-04 BMatP= 1.21D-02
 IDIUse=3 WtCom= 9.93D-01 WtEn= 7.43D-03
 Coeff-Com:  0.236D-01-0.505D-01 0.457D-02 0.154D+00 0.868D+00
 Coeff-En:   0.000D+00 0.000D+00 0.000D+00 0.000D+00 0.100D+01
 Coeff:      0.234D-01-0.501D-01 0.454D-02 0.153D+00 0.869D+00
 Gap=     0.239 Goal=   None    Shift=    0.000
 RMSDP=4.14D-04 MaxDP=3.29D-02 DE=-9.86D-03 OVMax= 9.09D-03

 Cycle   6  Pass 1  IDiag  1:
 RMSU=  2.55D-04    CP:  6.58D-01  1.59D+00  5.54D-01  8.80D-01  1.03D+00
 E= -863.162454835939     Delta-E=       -0.000250572853 Rises=F Damp=F
 DIIS: error= 5.71D-04 at cycle   6 NSaved=   6.
 NSaved= 6 IEnMin= 6 EnMin= -863.162454835939     IErMin= 6 ErrMin= 5.71D-04
 ErrMax= 5.71D-04  0.00D+00 EMaxC= 1.00D-01 BMatC= 5.91D-05 BMatP= 1.77D-04
 IDIUse=3 WtCom= 9.94D-01 WtEn= 5.71D-03
 Coeff-Com:  0.287D-01-0.618D-01-0.425D-01 0.156D-02 0.442D+00 0.632D+00
 Coeff-En:   0.000D+00 0.000D+00 0.000D+00 0.000D+00 0.000D+00 0.100D+01
 Coeff:      0.286D-01-0.614D-01-0.423D-01 0.155D-02 0.440D+00 0.634D+00
 Gap=     0.241 Goal=   None    Shift=    0.000
 RMSDP=1.02D-04 MaxDP=8.14D-03 DE=-2.51D-04 OVMax= 4.69D-03

 Cycle   7  Pass 1  IDiag  1:
 RMSU=  6.70D-05    CP:  6.58D-01  1.60D+00  5.52D-01  8.99D-01  1.16D+00
                    CP:  1.04D+00
 E= -863.162529757109     Delta-E=       -0.000074921169 Rises=F Damp=F
 DIIS: error= 1.50D-04 at cycle   7 NSaved=   7.
 NSaved= 7 IEnMin= 7 EnMin= -863.162529757109     IErMin= 7 ErrMin= 1.50D-04
 ErrMax= 1.50D-04  0.00D+00 EMaxC= 1.00D-01 BMatC= 4.93D-06 BMatP= 5.91D-05
 IDIUse=3 WtCom= 9.98D-01 WtEn= 1.50D-03
 Coeff-Com:  0.217D-02-0.462D-02-0.827D-02-0.200D-01-0.341D-01 0.176D+00
 Coeff-Com:  0.888D+00
 Coeff-En:   0.000D+00 0.000D+00 0.000D+00 0.000D+00 0.000D+00 0.000D+00
 Coeff-En:   0.100D+01
 Coeff:      0.216D-02-0.461D-02-0.826D-02-0.200D-01-0.341D-01 0.176D+00
 Coeff:      0.889D+00
 Gap=     0.241 Goal=   None    Shift=    0.000
 RMSDP=5.47D-05 MaxDP=4.12D-03 DE=-7.49D-05 OVMax= 2.75D-03

 Cycle   8  Pass 1  IDiag  1:
 RMSU=  3.52D-05    CP:  6.58D-01  1.60D+00  5.49D-01  9.11D-01  1.19D+00
                    CP:  1.15D+00  1.06D+00
 E= -863.162542522825     Delta-E=       -0.000012765716 Rises=F Damp=F
 DIIS: error= 7.89D-05 at cycle   8 NSaved=   8.
 NSaved= 8 IEnMin= 8 EnMin= -863.162542522825     IErMin= 8 ErrMin= 7.89D-05
 ErrMax= 7.89D-05  0.00D+00 EMaxC= 1.00D-01 BMatC= 1.28D-06 BMatP= 4.93D-06
 IDIUse=1 WtCom= 1.00D+00 WtEn= 0.00D+00
 Coeff-Com: -0.328D-02 0.707D-02 0.239D-02-0.114D-01-0.952D-01-0.141D-01
 Coeff-Com:  0.412D+00 0.702D+00
 Coeff:     -0.328D-02 0.707D-02 0.239D-02-0.114D-01-0.952D-01-0.141D-01
 Coeff:      0.412D+00 0.702D+00
 Gap=     0.241 Goal=   None    Shift=    0.000
 RMSDP=2.56D-05 MaxDP=2.89D-03 DE=-1.28D-05 OVMax= 1.45D-03

 Cycle   9  Pass 1  IDiag  1:
 RMSU=  1.25D-05    CP:  6.58D-01  1.60D+00  5.48D-01  9.15D-01  1.22D+00
                    CP:  1.18D+00  1.20D+00  1.12D+00
 E= -863.162545659298     Delta-E=       -0.000003136473 Rises=F Damp=F
 DIIS: error= 2.81D-05 at cycle   9 NSaved=   9.
 NSaved= 9 IEnMin= 9 EnMin= -863.162545659298     IErMin= 9 ErrMin= 2.81D-05
 ErrMax= 2.81D-05  0.00D+00 EMaxC= 1.00D-01 BMatC= 1.50D-07 BMatP= 1.28D-06
 IDIUse=1 WtCom= 1.00D+00 WtEn= 0.00D+00
 Coeff-Com: -0.130D-02 0.277D-02 0.273D-02 0.143D-02-0.193D-01-0.366D-01
 Coeff-Com: -0.864D-01 0.147D+00 0.989D+00
 Coeff:     -0.130D-02 0.277D-02 0.273D-02 0.143D-02-0.193D-01-0.366D-01
 Coeff:     -0.864D-01 0.147D+00 0.989D+00
 Gap=     0.241 Goal=   None    Shift=    0.000
 RMSDP=1.43D-05 MaxDP=1.15D-03 DE=-3.14D-06 OVMax= 7.88D-04

 Cycle  10  Pass 1  IDiag  1:
 RMSU=  8.83D-06    CP:  6.58D-01  1.60D+00  5.48D-01  9.16D-01  1.22D+00
                    CP:  1.20D+00  1.28D+00  1.25D+00  1.16D+00
 E= -863.162546288918     Delta-E=       -0.000000629620 Rises=F Damp=F
 DIIS: error= 1.13D-05 at cycle  10 NSaved=  10.
 NSaved=10 IEnMin=10 EnMin= -863.162546288918     IErMin=10 ErrMin= 1.13D-05
 ErrMax= 1.13D-05  0.00D+00 EMaxC= 1.00D-01 BMatC= 2.11D-08 BMatP= 1.50D-07
 IDIUse=1 WtCom= 1.00D+00 WtEn= 0.00D+00
 Coeff-Com:  0.217D-03-0.469D-03 0.331D-03 0.223D-02 0.808D-02-0.728D-02
 Coeff-Com: -0.846D-01-0.519D-01 0.286D+00 0.847D+00
 Coeff:      0.217D-03-0.469D-03 0.331D-03 0.223D-02 0.808D-02-0.728D-02
 Coeff:     -0.846D-01-0.519D-01 0.286D+00 0.847D+00
 Gap=     0.241 Goal=   None    Shift=    0.000
 RMSDP=5.03D-06 MaxDP=4.31D-04 DE=-6.30D-07 OVMax= 2.66D-04

 Cycle  11  Pass 1  IDiag  1:
 RMSU=  1.79D-06    CP:  6.58D-01  1.60D+00  5.48D-01  9.16D-01  1.23D+00
                    CP:  1.20D+00  1.30D+00  1.30D+00  1.30D+00  1.13D+00
 E= -863.162546362029     Delta-E=       -0.000000073111 Rises=F Damp=F
 DIIS: error= 4.25D-06 at cycle  11 NSaved=  11.
 NSaved=11 IEnMin=11 EnMin= -863.162546362029     IErMin=11 ErrMin= 4.25D-06
 ErrMax= 4.25D-06  0.00D+00 EMaxC= 1.00D-01 BMatC= 4.94D-09 BMatP= 2.11D-08
 IDIUse=1 WtCom= 1.00D+00 WtEn= 0.00D+00
 Coeff-Com:  0.271D-03-0.578D-03-0.281D-03 0.758D-03 0.575D-02 0.296D-02
 Coeff-Com: -0.122D-01-0.370D-01-0.867D-01 0.287D+00 0.840D+00
 Coeff:      0.271D-03-0.578D-03-0.281D-03 0.758D-03 0.575D-02 0.296D-02
 Coeff:     -0.122D-01-0.370D-01-0.867D-01 0.287D+00 0.840D+00
 Gap=     0.241 Goal=   None    Shift=    0.000
 RMSDP=1.99D-06 MaxDP=9.14D-05 DE=-7.31D-08 OVMax= 8.01D-05

 Cycle  12  Pass 1  IDiag  1:
 RMSU=  9.67D-07    CP:  6.58D-01  1.60D+00  5.47D-01  9.16D-01  1.23D+00
                    CP:  1.20D+00  1.31D+00  1.31D+00  1.35D+00  1.21D+00
                    CP:  1.31D+00
 E= -863.162546374506     Delta-E=       -0.000000012476 Rises=F Damp=F
 DIIS: error= 2.47D-06 at cycle  12 NSaved=  12.
 NSaved=12 IEnMin=12 EnMin= -863.162546374506     IErMin=12 ErrMin= 2.47D-06
 ErrMax= 2.47D-06  0.00D+00 EMaxC= 1.00D-01 BMatC= 7.69D-10 BMatP= 4.94D-09
 IDIUse=1 WtCom= 1.00D+00 WtEn= 0.00D+00
 Coeff-Com:  0.682D-04-0.143D-03-0.145D-03 0.255D-05 0.981D-03 0.177D-02
 Coeff-Com:  0.962D-02-0.450D-02-0.784D-01-0.344D-01 0.297D+00 0.808D+00
 Coeff:      0.682D-04-0.143D-03-0.145D-03 0.255D-05 0.981D-03 0.177D-02
 Coeff:      0.962D-02-0.450D-02-0.784D-01-0.344D-01 0.297D+00 0.808D+00
 Gap=     0.241 Goal=   None    Shift=    0.000
 RMSDP=1.10D-06 MaxDP=8.23D-05 DE=-1.25D-08 OVMax= 2.84D-05

 Cycle  13  Pass 1  IDiag  1:
 RMSU=  4.26D-07    CP:  6.58D-01  1.60D+00  5.47D-01  9.16D-01  1.23D+00
                    CP:  1.20D+00  1.31D+00  1.31D+00  1.34D+00  1.27D+00
                    CP:  1.47D+00  1.15D+00
 E= -863.162546376372     Delta-E=       -0.000000001866 Rises=F Damp=F
 DIIS: error= 8.23D-07 at cycle  13 NSaved=  13.
 NSaved=13 IEnMin=13 EnMin= -863.162546376372     IErMin=13 ErrMin= 8.23D-07
 ErrMax= 8.23D-07  0.00D+00 EMaxC= 1.00D-01 BMatC= 1.96D-10 BMatP= 7.69D-10
 IDIUse=1 WtCom= 1.00D+00 WtEn= 0.00D+00
 Coeff-Com: -0.148D-04 0.321D-04-0.217D-04-0.140D-03-0.580D-03 0.187D-03
 Coeff-Com:  0.721D-02 0.415D-02-0.218D-01-0.670D-01-0.104D-01 0.394D+00
 Coeff-Com:  0.695D+00
 Coeff:     -0.148D-04 0.321D-04-0.217D-04-0.140D-03-0.580D-03 0.187D-03
 Coeff:      0.721D-02 0.415D-02-0.218D-01-0.670D-01-0.104D-01 0.394D+00
 Coeff:      0.695D+00
 Gap=     0.241 Goal=   None    Shift=    0.000
 RMSDP=3.40D-07 MaxDP=1.97D-05 DE=-1.87D-09 OVMax= 8.94D-06

 Cycle  14  Pass 1  IDiag  1:
 RMSU=  1.70D-07    CP:  6.58D-01  1.60D+00  5.47D-01  9.16D-01  1.23D+00
                    CP:  1.20D+00  1.31D+00  1.31D+00  1.35D+00  1.27D+00
                    CP:  1.52D+00  1.27D+00  9.47D-01
 E= -863.162546376656     Delta-E=       -0.000000000284 Rises=F Damp=F
 DIIS: error= 3.55D-07 at cycle  14 NSaved=  14.
 NSaved=14 IEnMin=14 EnMin= -863.162546376656     IErMin=14 ErrMin= 3.55D-07
 ErrMax= 3.55D-07  0.00D+00 EMaxC= 1.00D-01 BMatC= 1.13D-11 BMatP= 1.96D-10
 IDIUse=1 WtCom= 1.00D+00 WtEn= 0.00D+00
 Coeff-Com: -0.105D-04 0.222D-04 0.105D-04-0.431D-04-0.253D-03-0.204D-03
 Coeff-Com:  0.412D-03 0.973D-03 0.597D-02-0.954D-02-0.425D-01-0.833D-02
 Coeff-Com:  0.118D+00 0.935D+00
 Coeff:     -0.105D-04 0.222D-04 0.105D-04-0.431D-04-0.253D-03-0.204D-03
 Coeff:      0.412D-03 0.973D-03 0.597D-02-0.954D-02-0.425D-01-0.833D-02
 Coeff:      0.118D+00 0.935D+00
 Gap=     0.241 Goal=   None    Shift=    0.000
 RMSDP=1.46D-07 MaxDP=1.14D-05 DE=-2.84D-10 OVMax= 5.17D-06

 Cycle  15  Pass 1  IDiag  1:
 RMSU=  4.90D-08    CP:  6.58D-01  1.60D+00  5.47D-01  9.16D-01  1.23D+00
                    CP:  1.20D+00  1.31D+00  1.31D+00  1.35D+00  1.27D+00
                    CP:  1.52D+00  1.33D+00  1.02D+00  1.27D+00
 E= -863.162546376602     Delta-E=        0.000000000054 Rises=F Damp=F
 DIIS: error= 1.34D-07 at cycle  15 NSaved=  15.
 NSaved=15 IEnMin=14 EnMin= -863.162546376656     IErMin=15 ErrMin= 1.34D-07
 ErrMax= 1.34D-07  0.00D+00 EMaxC= 1.00D-01 BMatC= 2.21D-12 BMatP= 1.13D-11
 IDIUse=1 WtCom= 1.00D+00 WtEn= 0.00D+00
 Coeff-Com: -0.213D-05 0.442D-05 0.646D-05 0.200D-05-0.652D-05-0.907D-04
 Coeff-Com: -0.691D-03-0.358D-03 0.448D-02 0.550D-02-0.125D-01-0.460D-01
 Coeff-Com: -0.642D-01 0.263D+00 0.851D+00
 Coeff:     -0.213D-05 0.442D-05 0.646D-05 0.200D-05-0.652D-05-0.907D-04
 Coeff:     -0.691D-03-0.358D-03 0.448D-02 0.550D-02-0.125D-01-0.460D-01
 Coeff:     -0.642D-01 0.263D+00 0.851D+00
 Gap=     0.241 Goal=   None    Shift=    0.000
 RMSDP=5.10D-08 MaxDP=3.05D-06 DE= 5.37D-11 OVMax= 2.27D-06

 Cycle  16  Pass 1  IDiag  1:
 RMSU=  1.99D-08    CP:  6.58D-01  1.60D+00  5.47D-01  9.16D-01  1.23D+00
                    CP:  1.20D+00  1.31D+00  1.31D+00  1.35D+00  1.27D+00
                    CP:  1.52D+00  1.35D+00  1.07D+00  1.40D+00  1.10D+00
 E= -863.162546376589     Delta-E=        0.000000000013 Rises=F Damp=F
 DIIS: error= 5.50D-08 at cycle  16 NSaved=  16.
 NSaved=16 IEnMin=14 EnMin= -863.162546376656     IErMin=16 ErrMin= 5.50D-08
 ErrMax= 5.50D-08  0.00D+00 EMaxC= 1.00D-01 BMatC= 3.80D-13 BMatP= 2.21D-12
 IDIUse=1 WtCom= 1.00D+00 WtEn= 0.00D+00
 Coeff-Com:  0.102D-05-0.216D-05-0.518D-06 0.745D-05 0.424D-04 0.122D-04
 Coeff-Com: -0.146D-03-0.276D-03-0.341D-03 0.273D-02 0.472D-02-0.227D-02
 Coeff-Com: -0.391D-01-0.140D+00 0.161D+00 0.101D+01
 Coeff:      0.102D-05-0.216D-05-0.518D-06 0.745D-05 0.424D-04 0.122D-04
 Coeff:     -0.146D-03-0.276D-03-0.341D-03 0.273D-02 0.472D-02-0.227D-02
 Coeff:     -0.391D-01-0.140D+00 0.161D+00 0.101D+01
 Gap=     0.241 Goal=   None    Shift=    0.000
 RMSDP=2.28D-08 MaxDP=1.18D-06 DE= 1.32D-11 OVMax= 1.17D-06

 Cycle  17  Pass 1  IDiag  1:
 RMSU=  7.39D-09    CP:  6.58D-01  1.60D+00  5.47D-01  9.16D-01  1.23D+00
                    CP:  1.20D+00  1.31D+00  1.31D+00  1.35D+00  1.27D+00
                    CP:  1.52D+00  1.35D+00  1.07D+00  1.48D+00  1.23D+00
                    CP:  1.26D+00
 E= -863.162546376557     Delta-E=        0.000000000032 Rises=F Damp=F
 DIIS: error= 1.73D-08 at cycle  17 NSaved=  17.
 NSaved=17 IEnMin=14 EnMin= -863.162546376656     IErMin=17 ErrMin= 1.73D-08
 ErrMax= 1.73D-08  0.00D+00 EMaxC= 1.00D-01 BMatC= 4.02D-14 BMatP= 3.80D-13
 IDIUse=1 WtCom= 1.00D+00 WtEn= 0.00D+00
 Coeff-Com:  0.346D-06-0.723D-06-0.624D-06 0.153D-05 0.979D-05 0.110D-04
 Coeff-Com:  0.490D-04-0.220D-04-0.523D-03 0.466D-04 0.189D-02 0.570D-02
 Coeff-Com: -0.804D-03-0.531D-01-0.585D-01 0.188D+00 0.917D+00
 Coeff:      0.346D-06-0.723D-06-0.624D-06 0.153D-05 0.979D-05 0.110D-04
 Coeff:      0.490D-04-0.220D-04-0.523D-03 0.466D-04 0.189D-02 0.570D-02
 Coeff:     -0.804D-03-0.531D-01-0.585D-01 0.188D+00 0.917D+00
 Gap=     0.241 Goal=   None    Shift=    0.000
 RMSDP=8.54D-09 MaxDP=7.70D-07 DE= 3.18D-11 OVMax= 3.37D-07

 SCF Done:  E(RwB97XD) =  -863.162546377     A.U. after   17 cycles
            NFock= 17  Conv=0.85D-08     -V/T= 2.0047
 KE= 8.591566902568D+02 PE=-4.725819980940D+03 EE= 1.645112598933D+03
 Leave Link  502 at Mon Jan 29 13:25:21 2018, MaxMem=  1879048192 cpu:      2275.1
 (Enter /share/apps/gaussian/g09_D01/g09/l801.exe)
 DoSCS=F DFT=T ScalE2(SS,OS)=  1.000000  1.000000
 ExpMin= 3.60D-02 ExpMax= 8.59D+03 ExpMxC= 1.30D+03 IAcc=3 IRadAn=         5 AccDes= 0.00D+00
 HarFok:  IExCor=  205 AccDes= 0.00D+00 IRadAn=         5 IDoV=-2 UseB2=F ITyADJ=14
 ICtDFT= 12500011 ScaDFX=  1.000000  1.000000  1.000000  1.000000
 Largest valence mixing into a core orbital is  5.71D-05
 Largest core mixing into a valence orbital is  1.62D-05
 Range of M.O.s used for correlation:    21   553
 NBasis=   559 NAE=    71 NBE=    71 NFC=    20 NFV=     0
 NROrb=    533 NOA=    51 NOB=    51 NVA=   482 NVB=   482

 **** Warning!!: The largest alpha MO coefficient is  0.13546159D+03

 Leave Link  801 at Mon Jan 29 13:25:22 2018, MaxMem=  1879048192 cpu:         1.3
 (Enter /share/apps/gaussian/g09_D01/g09/l914.exe)
 RHF ground state
 MDV=  1879048192 DFT=T DoStab=F Mixed=T DoRPA=T DoScal=F NonHer=T
 Would need an additional         71714600000 words for in-memory AO integral storage.
 Making orbital integer symmetry assigments:
    16 initial guesses have been made.
 Convergence on wavefunction:    0.001000000000000
 Davidson Disk Diagonalization:  ConvIn= 1.00D-03 SkipCon=T Conv= 1.00D-03.
 Max sub-space:   200 roots to seek:    16 dimension of matrix:        49164
 Iteration     1 Dimension    16 NMult     0 NNew     16
 CISAX will form    16 AO SS matrices at one time.
 NMat=    16 NSing=    16 JSym2X= 0.
 FoFJK:  IHMeth= 1 ICntrl=       0 DoSepK=T KAlg= 0 I1Cent=   0 FoldK=F
 IRaf=         1 NMat=  32 IRICut=       1 DoRegI=T DoRafI=F ISym2E= 0.
 FoFCou: FMM=F IPFlag=           0 FMFlag=      100000 FMFlg1=           0
         NFxFlg=           0 DoJE=F BraDBF=F KetDBF=F FulRan=T
         wScrn=  0.000000 ICntrl=     500 IOpCl=  0 I1Cent=           0 NGrid=           0
         NMat0=   16 NMatS0=     16 NMatT0=    0 NMatD0=   16 NMtDS0=    0 NMtDT0=    0
 Symmetry not used in FoFCou.
 New state      2 was old state      7
 New state      3 was old state      2
 New state      4 was old state      9
 Excitation Energies [eV] at current iteration:
 Root      1 :     3.822800069434763
 Root      2 :     4.283720550433063
 Root      3 :     4.517688938345243
 Root      4 :     5.074990584712213
 Root      5 :     5.440028278427009
 Root      6 :     5.649321094966037
 Root      7 :     5.875245431870723
 Root      8 :     5.944999719700758
 Root      9 :     6.124266525337691
 Root     10 :     6.157351648108221
 Root     11 :     6.268394157578393
 Root     12 :     6.412510314634411
 Root     13 :     6.532729031925222
 Root     14 :     6.596793650913454
 Root     15 :     7.209619724185390
 Root     16 :     7.410115461932913
 Iteration     2 Dimension    24 NMult    16 NNew      8
 CISAX will form     8 AO SS matrices at one time.
 NMat=     8 NSing=     8 JSym2X= 0.
 Root      1 not converged, maximum delta is    0.056615676120458
 Root      2 not converged, maximum delta is    0.111675688319114
 Root      3 not converged, maximum delta is    0.105585148553190
 Root      4 not converged, maximum delta is    0.128529355648670
 Excitation Energies [eV] at current iteration:
 Root      1 :     3.383773679415369   Change is   -0.439026390019393
 Root      2 :     3.836933332395904   Change is   -0.446787218037159
 Root      3 :     3.955305866770519   Change is   -0.562383071574724
 Root      4 :     4.544907955312014   Change is   -0.530082629400199
 Iteration     3 Dimension    32 NMult    24 NNew      8
 CISAX will form     8 AO SS matrices at one time.
 NMat=     8 NSing=     8 JSym2X= 0.
 Root      1 not converged, maximum delta is    0.011860527292535
 Root      2 not converged, maximum delta is    0.017612602596652
 Root      3 not converged, maximum delta is    0.035231790885532
 Root      4 not converged, maximum delta is    0.040138493887578
 Excitation Energies [eV] at current iteration:
 Root      1 :     3.351329308287290   Change is   -0.032444371128079
 Root      2 :     3.810561925209916   Change is   -0.026371407185988
 Root      3 :     3.906550291160733   Change is   -0.048755575609786
 Root      4 :     4.497094370409804   Change is   -0.047813584902210
 Iteration     4 Dimension    40 NMult    32 NNew      8
 CISAX will form     8 AO SS matrices at one time.
 NMat=     8 NSing=     8 JSym2X= 0.
 Root      1 not converged, maximum delta is    0.008366447388115
 Root      2 not converged, maximum delta is    0.005356651753398
 Root      3 not converged, maximum delta is    0.018165978102713
 Root      4 not converged, maximum delta is    0.011320144932442
 Excitation Energies [eV] at current iteration:
 Root      1 :     3.346550901397956   Change is   -0.004778406889334
 Root      2 :     3.808863755906343   Change is   -0.001698169303572
 Root      3 :     3.893398639892244   Change is   -0.013151651268489
 Root      4 :     4.490669834708513   Change is   -0.006424535701291
 Iteration     5 Dimension    48 NMult    40 NNew      8
 CISAX will form     8 AO SS matrices at one time.
 NMat=     8 NSing=     8 JSym2X= 0.
 Root      1 not converged, maximum delta is    0.002715447791931
 Root      2 not converged, maximum delta is    0.001526165544914
 Root      3 not converged, maximum delta is    0.004891772110532
 Root      4 not converged, maximum delta is    0.002015816060768
 Excitation Energies [eV] at current iteration:
 Root      1 :     3.346059770315644   Change is   -0.000491131082312
 Root      2 :     3.808728636002843   Change is   -0.000135119903500
 Root      3 :     3.891724386853982   Change is   -0.001674253038261
 Root      4 :     4.490241913432586   Change is   -0.000427921275928
 Iteration     6 Dimension    56 NMult    48 NNew      8
 CISAX will form     8 AO SS matrices at one time.
 NMat=     8 NSing=     8 JSym2X= 0.
 Root      1 has converged.
 Root      2 has converged.
 Root      3 not converged, maximum delta is    0.001233397793428
 Root      4 not converged, maximum delta is    0.001370056198745
 Excitation Energies [eV] at current iteration:
 Root      1 :     3.346007444602969   Change is   -0.000052325712675
 Root      2 :     3.808716708683376   Change is   -0.000011927319468
 Root      3 :     3.891511065286174   Change is   -0.000213321567809
 Root      4 :     4.490182699650759   Change is   -0.000059213781826
 Iteration     7 Dimension    60 NMult    56 NNew      4
 CISAX will form     4 AO SS matrices at one time.
 NMat=     4 NSing=     4 JSym2X= 0.
 Root      1 has converged.
 Root      2 has converged.
 Root      3 has converged.
 Root      4 has converged.
 Excitation Energies [eV] at current iteration:
 Root      1 :     3.346007344980268   Change is   -0.000000099622701
 Root      2 :     3.808716643132051   Change is   -0.000000065551324
 Root      3 :     3.891492511038996   Change is   -0.000018554247177
 Root      4 :     4.490172641481635   Change is   -0.000010058169125
 Convergence achieved on expansion vectors.
 ***********************************************************************
 Excited states from <AA,BB:AA,BB> singles matrix:
 ***********************************************************************
 
 1PDM for each excited state written to RWF  633
 Ground to excited state transition densities written to RWF  633
 Ground to excited state transition electric dipole moments (Au):
       state          X           Y           Z        Dip. S.      Osc.
         1        -3.5763     -0.3317      1.3587     14.7463      1.2088
         2         0.1899      0.0017     -0.0563      0.0392      0.0037
         3         0.4453     -0.0706     -0.2724      0.2775      0.0265
         4        -0.4896     -0.3724     -0.1531      0.4018      0.0442
 Ground to excited state transition velocity dipole moments (Au):
       state          X           Y           Z        Dip. S.      Osc.
         1         0.4340      0.0384     -0.1674      0.2178      1.1811
         2        -0.0265      0.0015      0.0070      0.0008      0.0036
         3        -0.0599      0.0080      0.0339      0.0048      0.0224
         4         0.0792      0.0664      0.0311      0.0117      0.0471
 Ground to excited state transition magnetic dipole moments (Au):
       state          X           Y           Z
         1         1.7246      1.5934      4.8011
         2        -0.1009      0.1187      0.0884
         3        -0.1251     -1.0247     -0.1054
         4        -0.7337      0.6513      0.5643
 Ground to excited state transition velocity quadrupole moments (Au):
       state          XX          YY          ZZ          XY          XZ          YZ
         1        -4.5521     -0.9667     -1.5210     -5.7809      2.7293      2.2766
         2         0.3253     -0.0056      0.0295      0.3261     -0.1754     -0.0696
         3        -1.3816     -0.1611     -0.0585      0.6592      0.5157     -0.3062
         4        -0.4487     -1.5740      0.0607     -0.9346      0.4192     -0.2172
 <0|del|b> * <b|rxdel|0> + <0|del|b> * <b|delr+rdel|0>
 Rotatory Strengths (R) in cgs (10**-40 erg-esu-cm/Gauss)
       state          XX          YY          ZZ    R(velocity)    E-M Angle
         1       346.3206   -100.4633   -211.8215     11.3453       89.86
         2         8.4335      7.2145      1.8736      5.8405       45.05
         3        16.0016     -0.3022    -36.8714     -7.0573       93.41
         4         8.3823    -61.7155     64.6361      3.7676       88.76
 1/2[<0|r|b>*<b|rxdel|0> + (<0|rxdel|b>*<b|r|0>)*]
 Rotatory Strengths (R) in cgs (10**-40 erg-esu-cm/Gauss)
       state          XX          YY          ZZ     R(length)
         1      4361.7206    373.7868  -4613.0725     40.8116
         2        13.5501     -0.1408      3.5184      5.6425
         3        39.4120    -51.1792    -20.2955    -10.6876
         4      -253.9983    171.5291     61.0804     -7.1296
  1/2[<0|del|b>*<b|r|0> + (<0|r|b>*<b|del|0>)*] (Au)
       state          X           Y           Z        Dip. S.   Osc.(frdel)
         1        -1.5521     -0.0127     -0.2275      1.7923      1.1949
         2        -0.0050      0.0000     -0.0004      0.0054      0.0036
         3        -0.0267     -0.0006     -0.0092      0.0365      0.0243
         4        -0.0388     -0.0247     -0.0048      0.0683      0.0455

 Excitation energies and oscillator strengths:
 
 Excited state symmetry could not be determined.
 Excited State   1:      Singlet-?Sym    3.3460 eV  370.54 nm  f=1.2088  <S**2>=0.000
      70 -> 72         0.14014
      70 -> 74         0.12196
      71 -> 72         0.65943
 This state for optimization and/or second-order correction.
 Total Energy, E(TD-HF/TD-KS) =  -863.039582864    
 Copying the excited state density for this state as the 1-particle RhoCI density.
 
 Excited state symmetry could not be determined.
 Excited State   2:      Singlet-?Sym    3.8087 eV  325.53 nm  f=0.0037  <S**2>=0.000
      68 -> 72         0.66398
      68 -> 74         0.14057
 
 Excited state symmetry could not be determined.
 Excited State   3:      Singlet-?Sym    3.8915 eV  318.60 nm  f=0.0265  <S**2>=0.000
      70 -> 72         0.63508
      70 -> 74         0.17788
      71 -> 72        -0.14311
      71 -> 74         0.13969
 
 Excited state symmetry could not be determined.
 Excited State   4:      Singlet-?Sym    4.4902 eV  276.12 nm  f=0.0442  <S**2>=0.000
      67 -> 72         0.27148
      67 -> 74        -0.12807
      70 -> 77        -0.11652
      71 -> 74         0.27180
      71 -> 77         0.53405
 SavETr:  write IOETrn=   770 NScale= 10 NData=  16 NLR=1 NState=    4 LETran=      82.
 Leave Link  914 at Mon Jan 29 14:11:06 2018, MaxMem=  1879048192 cpu:      5483.8
 (Enter /share/apps/gaussian/g09_D01/g09/l601.exe)
 Copying SCF densities to generalized density rwf, IOpCl= 0 IROHF=0.

 **********************************************************************

            Population analysis using the SCF density.

 **********************************************************************

 Alpha  occ. eigenvalues --  -19.24247 -19.23379 -14.47978 -10.38265 -10.35619
 Alpha  occ. eigenvalues --  -10.35419 -10.33771 -10.33755 -10.31809 -10.30946
 Alpha  occ. eigenvalues --  -10.30835 -10.30162 -10.30142 -10.30073 -10.29842
 Alpha  occ. eigenvalues --  -10.29822 -10.29749 -10.29038 -10.28435 -10.28175
 Alpha  occ. eigenvalues --   -1.14935  -1.11100  -1.08217  -0.97225  -0.95647
 Alpha  occ. eigenvalues --   -0.91073  -0.87403  -0.87200  -0.84906  -0.84299
 Alpha  occ. eigenvalues --   -0.83581  -0.79489  -0.74739  -0.72270  -0.71546
 Alpha  occ. eigenvalues --   -0.69185  -0.67978  -0.64675  -0.63469  -0.61394
 Alpha  occ. eigenvalues --   -0.59780  -0.58993  -0.57923  -0.57831  -0.55778
 Alpha  occ. eigenvalues --   -0.55442  -0.54274  -0.52793  -0.52626  -0.51610
 Alpha  occ. eigenvalues --   -0.51517  -0.51252  -0.51038  -0.50312  -0.48741
 Alpha  occ. eigenvalues --   -0.48290  -0.47342  -0.46748  -0.46241  -0.46066
 Alpha  occ. eigenvalues --   -0.45352  -0.42853  -0.42172  -0.41915  -0.41401
 Alpha  occ. eigenvalues --   -0.35234  -0.35071  -0.34211  -0.33593  -0.29522
 Alpha  occ. eigenvalues --   -0.27103
 Alpha virt. eigenvalues --   -0.03030   0.02540   0.03205   0.03798   0.04301
 Alpha virt. eigenvalues --    0.04381   0.04877   0.05649   0.06177   0.06319
 Alpha virt. eigenvalues --    0.06806   0.06973   0.07800   0.07996   0.08059
 Alpha virt. eigenvalues --    0.08621   0.09242   0.09355   0.10472   0.10629
 Alpha virt. eigenvalues --    0.10931   0.11289   0.11998   0.12344   0.13062
 Alpha virt. eigenvalues --    0.13192   0.13434   0.13736   0.14253   0.14658
 Alpha virt. eigenvalues --    0.15223   0.15421   0.15795   0.15941   0.16056
 Alpha virt. eigenvalues --    0.16153   0.16535   0.16777   0.17193   0.17312
 Alpha virt. eigenvalues --    0.17522   0.17691   0.18346   0.18525   0.18952
 Alpha virt. eigenvalues --    0.19483   0.19497   0.19959   0.20121   0.20447
 Alpha virt. eigenvalues --    0.20682   0.20924   0.21278   0.21680   0.21912
 Alpha virt. eigenvalues --    0.22077   0.22372   0.22417   0.22889   0.23165
 Alpha virt. eigenvalues --    0.23476   0.23598   0.23965   0.24131   0.24810
 Alpha virt. eigenvalues --    0.24978   0.25409   0.25529   0.25862   0.26317
 Alpha virt. eigenvalues --    0.26517   0.26699   0.26930   0.27558   0.28045
 Alpha virt. eigenvalues --    0.28186   0.28619   0.29146   0.29402   0.29928
 Alpha virt. eigenvalues --    0.30270   0.30467   0.30577   0.30771   0.31107
 Alpha virt. eigenvalues --    0.31512   0.31751   0.32250   0.32628   0.33297
 Alpha virt. eigenvalues --    0.33609   0.33840   0.34285   0.34465   0.34689
 Alpha virt. eigenvalues --    0.35465   0.35712   0.35952   0.36774   0.37059
 Alpha virt. eigenvalues --    0.37338   0.37757   0.37804   0.38149   0.38555
 Alpha virt. eigenvalues --    0.39026   0.39257   0.39598   0.40268   0.40620
 Alpha virt. eigenvalues --    0.40864   0.41589   0.41741   0.42659   0.42846
 Alpha virt. eigenvalues --    0.43746   0.44017   0.44268   0.44954   0.46041
 Alpha virt. eigenvalues --    0.46475   0.47240   0.48318   0.49290   0.49461
 Alpha virt. eigenvalues --    0.49903   0.50504   0.50866   0.52121   0.52818
 Alpha virt. eigenvalues --    0.54368   0.54510   0.55468   0.56905   0.58483
 Alpha virt. eigenvalues --    0.59974   0.60697   0.61164   0.61510   0.61797
 Alpha virt. eigenvalues --    0.61968   0.62607   0.63044   0.63511   0.64088
 Alpha virt. eigenvalues --    0.64149   0.64637   0.65451   0.66309   0.66437
 Alpha virt. eigenvalues --    0.67048   0.67260   0.67409   0.68123   0.69104
 Alpha virt. eigenvalues --    0.69497   0.69915   0.71296   0.71472   0.71565
 Alpha virt. eigenvalues --    0.71919   0.72622   0.73437   0.73534   0.74276
 Alpha virt. eigenvalues --    0.74823   0.75580   0.75900   0.76103   0.76630
 Alpha virt. eigenvalues --    0.77368   0.78040   0.78480   0.78716   0.79289
 Alpha virt. eigenvalues --    0.79722   0.80440   0.80718   0.82322   0.83117
 Alpha virt. eigenvalues --    0.83534   0.84665   0.85183   0.85692   0.86590
 Alpha virt. eigenvalues --    0.87620   0.89153   0.89673   0.90820   0.91559
 Alpha virt. eigenvalues --    0.91921   0.94006   0.94318   0.94688   0.95319
 Alpha virt. eigenvalues --    0.95729   0.96541   0.96956   0.96998   0.97861
 Alpha virt. eigenvalues --    0.98660   0.99223   0.99414   1.00645   1.01430
 Alpha virt. eigenvalues --    1.02345   1.03345   1.03872   1.04399   1.05091
 Alpha virt. eigenvalues --    1.05686   1.06390   1.07299   1.07601   1.08521
 Alpha virt. eigenvalues --    1.08889   1.09704   1.10078   1.10634   1.12029
 Alpha virt. eigenvalues --    1.13332   1.13900   1.14616   1.15030   1.15310
 Alpha virt. eigenvalues --    1.16769   1.17747   1.18784   1.19681   1.20270
 Alpha virt. eigenvalues --    1.20618   1.21028   1.21613   1.22093   1.23430
 Alpha virt. eigenvalues --    1.25575   1.30733   1.31823   1.32246   1.34406
 Alpha virt. eigenvalues --    1.35113   1.36339   1.38236   1.39897   1.40228
 Alpha virt. eigenvalues --    1.41979   1.47779   1.48311   1.49498   1.51221
 Alpha virt. eigenvalues --    1.51608   1.52795   1.53737   1.55788   1.56238
 Alpha virt. eigenvalues --    1.57098   1.57686   1.58684   1.59666   1.60589
 Alpha virt. eigenvalues --    1.61628   1.61935   1.62528   1.62801   1.62885
 Alpha virt. eigenvalues --    1.63007   1.64283   1.64710   1.64914   1.65240
 Alpha virt. eigenvalues --    1.65708   1.66761   1.68021   1.68991   1.69291
 Alpha virt. eigenvalues --    1.70089   1.73236   1.75018   1.75182   1.75241
 Alpha virt. eigenvalues --    1.77398   1.78371   1.79200   1.79720   1.80538
 Alpha virt. eigenvalues --    1.80734   1.81306   1.82337   1.82675   1.83733
 Alpha virt. eigenvalues --    1.84654   1.84721   1.86602   1.87829   1.88726
 Alpha virt. eigenvalues --    1.90201   1.91068   1.93216   1.93918   1.95452
 Alpha virt. eigenvalues --    1.96861   1.97547   1.97877   2.00317   2.00619
 Alpha virt. eigenvalues --    2.00759   2.01616   2.01704   2.03403   2.03634
 Alpha virt. eigenvalues --    2.04663   2.04718   2.05505   2.06271   2.07040
 Alpha virt. eigenvalues --    2.08137   2.08999   2.11422   2.11659   2.12733
 Alpha virt. eigenvalues --    2.14240   2.14471   2.15536   2.17118   2.17452
 Alpha virt. eigenvalues --    2.17983   2.20027   2.20558   2.22913   2.24754
 Alpha virt. eigenvalues --    2.25007   2.25739   2.28617   2.31505   2.33592
 Alpha virt. eigenvalues --    2.35631   2.37055   2.37848   2.39865   2.41535
 Alpha virt. eigenvalues --    2.42650   2.42910   2.45311   2.46889   2.48032
 Alpha virt. eigenvalues --    2.49969   2.52582   2.54746   2.55142   2.55175
 Alpha virt. eigenvalues --    2.55448   2.56757   2.56939   2.57433   2.60524
 Alpha virt. eigenvalues --    2.62751   2.63535   2.67639   2.68108   2.69863
 Alpha virt. eigenvalues --    2.70237   2.72612   2.73806   2.74375   2.76566
 Alpha virt. eigenvalues --    2.77592   2.78204   2.78470   2.79699   2.80671
 Alpha virt. eigenvalues --    2.81226   2.81832   2.82375   2.83657   2.83752
 Alpha virt. eigenvalues --    2.84481   2.85348   2.85804   2.86339   2.86694
 Alpha virt. eigenvalues --    2.88362   2.89928   2.90273   2.91108   2.92020
 Alpha virt. eigenvalues --    2.92465   2.93589   2.94439   2.95465   2.96234
 Alpha virt. eigenvalues --    2.98000   2.98625   3.01013   3.01645   3.02652
 Alpha virt. eigenvalues --    3.03635   3.04602   3.06527   3.07191   3.08827
 Alpha virt. eigenvalues --    3.14655   3.17757   3.18750   3.19673   3.21112
 Alpha virt. eigenvalues --    3.21998   3.24167   3.26798   3.28690   3.30600
 Alpha virt. eigenvalues --    3.31145   3.33975   3.34539   3.38022   3.38283
 Alpha virt. eigenvalues --    3.41810   3.45417   3.46440   3.47404   3.50047
 Alpha virt. eigenvalues --    3.57024   3.59853   3.60817   3.62384   3.62927
 Alpha virt. eigenvalues --    3.64122   3.66110   3.68101   3.73440   3.76417
 Alpha virt. eigenvalues --    3.77442   3.77876   3.78320   3.78701   3.86045
 Alpha virt. eigenvalues --    3.88658   3.89124   3.92930   4.02075   4.05047
 Alpha virt. eigenvalues --    4.07790   4.09578   4.12496   4.13805   4.16229
 Alpha virt. eigenvalues --    4.26413   4.27720   4.29392   4.31108   4.37818
 Alpha virt. eigenvalues --    4.53116   4.76957   4.92507   4.93723   4.99952
 Alpha virt. eigenvalues --    5.15100   5.17681   5.18461   5.37990   5.65068
 Alpha virt. eigenvalues --    5.84426   5.96301  23.71289  23.79597  23.93928
 Alpha virt. eigenvalues --   24.01890  24.03307  24.03470  24.04783  24.07705
 Alpha virt. eigenvalues --   24.08182  24.08656  24.13601  24.14553  24.22758
 Alpha virt. eigenvalues --   24.25185  24.27970  24.30757  24.31401  35.74009
 Alpha virt. eigenvalues --   50.13862  50.17973
          Condensed to atoms (all electrons):
               1          2          3          4          5          6
     1  C   17.791030  -1.587608   2.407750   0.329189  -0.337691  -0.172058
     2  C   -1.587608   9.827518  -2.027270  -0.348794   0.650736   0.586285
     3  C    2.407750  -2.027270  22.757198   0.047508   0.332406  -0.081734
     4  O    0.329189  -0.348794   0.047508   8.162737   0.008349  -0.023215
     5  C   -0.337691   0.650736   0.332406   0.008349   7.068637  -0.016046
     6  H   -0.172058   0.586285  -0.081734  -0.023215  -0.016046   0.456326
     7  C   -3.817331   2.526853  -1.429608  -0.039625   1.539928   0.033964
     8  C   -4.735695  -1.673437  -1.110560  -0.040121  -1.567542  -0.010855
     9  H    0.005838   0.025677  -0.084427   0.219394   0.002295   0.001152
    10  C    0.534617  -0.835166  -2.458608   0.004627  -0.619455  -0.006726
    11  H    0.010813  -0.074762   0.090485   0.000801   0.429704  -0.011134
    12  H   -0.008653   0.089741  -0.006560  -0.001914   0.054002   0.000266
    13  C   -3.321962  -0.391849  -8.392213  -0.036350  -0.750465   0.002489
    14  O   -0.011671  -0.094239  -0.020572   0.024363  -0.019371   0.000893
    15  H    0.042352   0.005753   0.032001   0.000254  -0.096827   0.001126
    16  C   -1.246913  -0.151840  -4.877916   0.045311  -0.270809   0.002223
    17  H   -0.003512  -0.043757  -0.037704  -0.001782  -0.012088   0.000136
    18  C    0.060776   0.007327   0.557653  -0.000451   0.033202  -0.000733
    19  H   -0.067417   0.002197  -0.181856  -0.000695  -0.003982  -0.000118
    20  C   -0.019371   0.041030  -0.909365   0.001601  -0.025018   0.000328
    21  C   -0.053408  -0.020502  -0.194241  -0.001228  -0.002015  -0.000009
    22  H    0.010324   0.003573  -0.005634   0.000248  -0.001702   0.000004
    23  C    0.017062   0.006992   0.032225   0.000214  -0.000087   0.000000
    24  C   -0.027507  -0.004332  -0.164495  -0.000261  -0.000150  -0.000011
    25  H    0.007472   0.000266   0.025293   0.000017   0.000133   0.000010
    26  C    0.001726   0.000856  -0.079188  -0.000033  -0.000555   0.000006
    27  H   -0.000476  -0.000185   0.005105  -0.000004   0.000208  -0.000001
    28  H   -0.000448  -0.000014  -0.002201   0.000001   0.000006  -0.000001
    29  N    0.000010   0.000000   0.000431   0.000000   0.000001   0.000000
    30  C    0.000064  -0.000001   0.002073   0.000000   0.000007   0.000000
    31  C   -0.000022  -0.000002  -0.000894   0.000000   0.000000   0.000000
    32  H   -0.000004   0.000001  -0.000215   0.000000  -0.000001   0.000000
    33  H    0.000003   0.000000   0.000121   0.000000   0.000000   0.000000
    34  H   -0.000002   0.000001  -0.000193   0.000000  -0.000003   0.000000
    35  H    0.000006   0.000000   0.000042   0.000000   0.000000   0.000000
    36  H   -0.000003   0.000000  -0.000063   0.000000   0.000000   0.000000
    37  H    0.000008   0.000000   0.000094   0.000000   0.000000   0.000000
               7          8          9         10         11         12
     1  C   -3.817331  -4.735695   0.005838   0.534617   0.010813  -0.008653
     2  C    2.526853  -1.673437   0.025677  -0.835166  -0.074762   0.089741
     3  C   -1.429608  -1.110560  -0.084427  -2.458608   0.090485  -0.006560
     4  O   -0.039625  -0.040121   0.219394   0.004627   0.000801  -0.001914
     5  C    1.539928  -1.567542   0.002295  -0.619455   0.429704   0.054002
     6  H    0.033964  -0.010855   0.001152  -0.006726  -0.011134   0.000266
     7  C   17.838768  -1.636819   0.041844  -3.327347  -0.028411   0.847606
     8  C   -1.636819  19.130681   0.064049   1.402125  -0.012468  -0.021649
     9  H    0.041844   0.064049   0.272827   0.004262  -0.000108   0.001044
    10  C   -3.327347   1.402125   0.004262   9.932346  -0.066377  -0.290751
    11  H   -0.028411  -0.012468  -0.000108  -0.066377   0.478441   0.002550
    12  H    0.847606  -0.021649   0.001044  -0.290751   0.002550   0.588839
    13  C   -3.022000   0.834485  -0.014181   1.064339  -0.010790  -0.176714
    14  O   -0.246927   0.872128   0.087052   0.009061  -0.000224  -0.006166
    15  H   -0.132685   0.016942   0.000283   0.429293  -0.011422  -0.022181
    16  C   -1.764109  -4.464544  -0.035566   0.642757  -0.003435  -0.141772
    17  H   -0.108494  -0.059335   0.002252   0.032468  -0.000992  -0.027495
    18  C    0.134377   1.754513  -0.000186  -0.113993   0.000498   0.016076
    19  H    0.025614   0.009501  -0.000513   0.011431  -0.000027   0.000941
    20  C   -0.179805  -1.679418  -0.008304   0.058542  -0.000391  -0.014176
    21  C    0.011429  -0.381599   0.001904   0.044441   0.000006  -0.006990
    22  H   -0.029375  -0.048034  -0.000382  -0.002935  -0.000020  -0.008384
    23  C    0.014381   0.269999   0.000202  -0.021537   0.000017   0.015986
    24  C    0.029324  -0.417181  -0.000609   0.011343   0.000000  -0.003906
    25  H   -0.004589   0.030939   0.000144  -0.000857   0.000001   0.000115
    26  C   -0.005897  -0.272438  -0.000596   0.001400  -0.000007   0.000919
    27  H    0.002551   0.016702   0.000031  -0.000547   0.000004   0.000226
    28  H    0.000652   0.001308   0.000004   0.000004   0.000000   0.000020
    29  N   -0.000022   0.002729   0.000002  -0.000004   0.000000   0.000038
    30  C   -0.000441   0.006626   0.000003  -0.000176   0.000000   0.000075
    31  C    0.000089  -0.002537  -0.000006   0.000020   0.000000  -0.000020
    32  H    0.000051  -0.000667  -0.000001   0.000034   0.000000   0.000012
    33  H   -0.000026   0.000471   0.000000  -0.000010   0.000000   0.000004
    34  H   -0.000027  -0.000825  -0.000001   0.000014   0.000000  -0.000007
    35  H   -0.000003  -0.000045   0.000000   0.000001   0.000000   0.000002
    36  H    0.000011  -0.000284   0.000000   0.000003   0.000000  -0.000004
    37  H   -0.000021   0.000227   0.000000  -0.000003   0.000000   0.000001
              13         14         15         16         17         18
     1  C   -3.321962  -0.011671   0.042352  -1.246913  -0.003512   0.060776
     2  C   -0.391849  -0.094239   0.005753  -0.151840  -0.043757   0.007327
     3  C   -8.392213  -0.020572   0.032001  -4.877916  -0.037704   0.557653
     4  O   -0.036350   0.024363   0.000254   0.045311  -0.001782  -0.000451
     5  C   -0.750465  -0.019371  -0.096827  -0.270809  -0.012088   0.033202
     6  H    0.002489   0.000893   0.001126   0.002223   0.000136  -0.000733
     7  C   -3.022000  -0.246927  -0.132685  -1.764109  -0.108494   0.134377
     8  C    0.834485   0.872128   0.016942  -4.464544  -0.059335   1.754513
     9  H   -0.014181   0.087052   0.000283  -0.035566   0.002252  -0.000186
    10  C    1.064339   0.009061   0.429293   0.642757   0.032468  -0.113993
    11  H   -0.010790  -0.000224  -0.011422  -0.003435  -0.000992   0.000498
    12  H   -0.176714  -0.006166  -0.022181  -0.141772  -0.027495   0.016076
    13  C   16.247260  -0.378645   0.016006   5.415886   0.768374  -1.052343
    14  O   -0.378645   8.112647   0.000861   0.003908   0.005022   0.020917
    15  H    0.016006   0.000861   0.483536   0.009755   0.004811  -0.002416
    16  C    5.415886   0.003908   0.009755  12.395732   0.073899  -1.697405
    17  H    0.768374   0.005022   0.004811   0.073899   0.860869   0.029705
    18  C   -1.052343   0.020917  -0.002416  -1.697405   0.029705  11.780642
    19  H    0.077219  -0.010972  -0.000143   0.416414   0.000323  -0.153627
    20  C   -0.802923   0.000063   0.000424   1.292701  -0.147022  -0.024726
    21  C    0.342102  -0.015581   0.000414  -0.245792   0.047489   0.193892
    22  H   -0.115494   0.001149   0.000120  -0.017273  -0.040295  -0.140062
    23  C   -0.659033  -0.000324  -0.000782  -0.378322  -0.180813  -1.009782
    24  C    0.500134  -0.001716   0.000044   0.837759   0.055320  -2.991657
    25  H    0.032212   0.001109   0.000003   0.024608   0.003715  -0.073693
    26  C   -0.419118  -0.000373  -0.000093  -0.074466  -0.060633  -2.095960
    27  H    0.044150   0.000025  -0.000021   0.015179   0.012428   0.150358
    28  H   -0.015149   0.000011  -0.000002  -0.000616  -0.000714  -0.024533
    29  N    0.004989  -0.000002   0.000000  -0.002707  -0.000836  -0.023774
    30  C    0.016425  -0.000001  -0.000002  -0.007429  -0.000319   0.014193
    31  C   -0.008705   0.000005   0.000000   0.021242   0.000195  -0.143788
    32  H   -0.001908   0.000000   0.000000  -0.001054  -0.000522  -0.013966
    33  H    0.001210   0.000000   0.000000  -0.001173   0.000010   0.007190
    34  H   -0.001516   0.000000   0.000001   0.000381  -0.000212  -0.007036
    35  H    0.000377  -0.000001   0.000000  -0.001606  -0.000058  -0.001976
    36  H   -0.000399   0.000000   0.000000   0.002496   0.000072  -0.006647
    37  H    0.000448  -0.000001   0.000000  -0.001263   0.000048   0.010428
              19         20         21         22         23         24
     1  C   -0.067417  -0.019371  -0.053408   0.010324   0.017062  -0.027507
     2  C    0.002197   0.041030  -0.020502   0.003573   0.006992  -0.004332
     3  C   -0.181856  -0.909365  -0.194241  -0.005634   0.032225  -0.164495
     4  O   -0.000695   0.001601  -0.001228   0.000248   0.000214  -0.000261
     5  C   -0.003982  -0.025018  -0.002015  -0.001702  -0.000087  -0.000150
     6  H   -0.000118   0.000328  -0.000009   0.000004   0.000000  -0.000011
     7  C    0.025614  -0.179805   0.011429  -0.029375   0.014381   0.029324
     8  C    0.009501  -1.679418  -0.381599  -0.048034   0.269999  -0.417181
     9  H   -0.000513  -0.008304   0.001904  -0.000382   0.000202  -0.000609
    10  C    0.011431   0.058542   0.044441  -0.002935  -0.021537   0.011343
    11  H   -0.000027  -0.000391   0.000006  -0.000020   0.000017   0.000000
    12  H    0.000941  -0.014176  -0.006990  -0.008384   0.015986  -0.003906
    13  C    0.077219  -0.802923   0.342102  -0.115494  -0.659033   0.500134
    14  O   -0.010972   0.000063  -0.015581   0.001149  -0.000324  -0.001716
    15  H   -0.000143   0.000424   0.000414   0.000120  -0.000782   0.000044
    16  C    0.416414   1.292701  -0.245792  -0.017273  -0.378322   0.837759
    17  H    0.000323  -0.147022   0.047489  -0.040295  -0.180813   0.055320
    18  C   -0.153627  -0.024726   0.193892  -0.140062  -1.009782  -2.991657
    19  H    0.465888   0.059401   0.041388   0.002122   0.011603   0.033093
    20  C    0.059401  10.527797  -0.953959   0.428044   1.456848  -1.374973
    21  C    0.041388  -0.953959  10.534443   0.039748  -1.278992   0.536560
    22  H    0.002122   0.428044   0.039748   0.562258   0.071549  -0.028284
    23  C    0.011603   1.456848  -1.278992   0.071549   8.983090  -1.742374
    24  C    0.033093  -1.374973   0.536560  -0.028284  -1.742374  10.459422
    25  H   -0.008018  -0.057490   0.280674  -0.004515   0.008469   0.003397
    26  C    0.021870  -1.096832  -2.568306   0.186071   0.586050   0.312789
    27  H   -0.000870   0.037718  -0.030061  -0.038731   0.354293  -0.011959
    28  H    0.002237  -0.012318   0.032705   0.001310  -0.026332   0.492170
    29  N   -0.000767  -0.029486   0.065435  -0.001200  -0.293430  -0.257985
    30  C   -0.000312   0.000416  -0.032534   0.002405   0.134747  -0.184577
    31  C   -0.000517  -0.044041  -0.082073  -0.000106  -0.136822   0.218511
    32  H    0.000134  -0.013565  -0.006587   0.003213   0.029947  -0.012693
    33  H   -0.000042   0.003441   0.010930  -0.000328   0.024986   0.001523
    34  H    0.000068  -0.007503  -0.002683   0.001422   0.019475  -0.001803
    35  H   -0.000030  -0.007576  -0.014579   0.000125  -0.016795   0.017666
    36  H    0.000006   0.005606  -0.017653  -0.000493   0.012009   0.026298
    37  H   -0.000171  -0.001004   0.003765  -0.000186   0.002820   0.011456
              25         26         27         28         29         30
     1  C    0.007472   0.001726  -0.000476  -0.000448   0.000010   0.000064
     2  C    0.000266   0.000856  -0.000185  -0.000014   0.000000  -0.000001
     3  C    0.025293  -0.079188   0.005105  -0.002201   0.000431   0.002073
     4  O    0.000017  -0.000033  -0.000004   0.000001   0.000000   0.000000
     5  C    0.000133  -0.000555   0.000208   0.000006   0.000001   0.000007
     6  H    0.000010   0.000006  -0.000001  -0.000001   0.000000   0.000000
     7  C   -0.004589  -0.005897   0.002551   0.000652  -0.000022  -0.000441
     8  C    0.030939  -0.272438   0.016702   0.001308   0.002729   0.006626
     9  H    0.000144  -0.000596   0.000031   0.000004   0.000002   0.000003
    10  C   -0.000857   0.001400  -0.000547   0.000004  -0.000004  -0.000176
    11  H    0.000001  -0.000007   0.000004   0.000000   0.000000   0.000000
    12  H    0.000115   0.000919   0.000226   0.000020   0.000038   0.000075
    13  C    0.032212  -0.419118   0.044150  -0.015149   0.004989   0.016425
    14  O    0.001109  -0.000373   0.000025   0.000011  -0.000002  -0.000001
    15  H    0.000003  -0.000093  -0.000021  -0.000002   0.000000  -0.000002
    16  C    0.024608  -0.074466   0.015179  -0.000616  -0.002707  -0.007429
    17  H    0.003715  -0.060633   0.012428  -0.000714  -0.000836  -0.000319
    18  C   -0.073693  -2.095960   0.150358  -0.024533  -0.023774   0.014193
    19  H   -0.008018   0.021870  -0.000870   0.002237  -0.000767  -0.000312
    20  C   -0.057490  -1.096832   0.037718  -0.012318  -0.029486   0.000416
    21  C    0.280674  -2.568306  -0.030061   0.032705   0.065435  -0.032534
    22  H   -0.004515   0.186071  -0.038731   0.001310  -0.001200   0.002405
    23  C    0.008469   0.586050   0.354293  -0.026332  -0.293430   0.134747
    24  C    0.003397   0.312789  -0.011959   0.492170  -0.257985  -0.184577
    25  H    0.491890   0.034904   0.001658  -0.014059  -0.001088   0.000374
    26  C    0.034904  12.587590  -0.284258  -0.097648   0.244832  -0.224850
    27  H    0.001658  -0.284258   0.538763   0.000350  -0.034829   0.019598
    28  H   -0.014059  -0.097648   0.000350   0.509683  -0.032985  -0.005578
    29  N   -0.001088   0.244832  -0.034829  -0.032985   6.995817   0.302357
    30  C    0.000374  -0.224850   0.019598  -0.005578   0.302357   5.241956
    31  C    0.002951  -0.119612  -0.005224   0.013502   0.310807  -0.117405
    32  H   -0.000218   0.023055  -0.016040  -0.000716  -0.051634   0.416675
    33  H   -0.000077  -0.028941   0.008699   0.001472  -0.047171   0.402979
    34  H   -0.000137  -0.002314  -0.011469  -0.000140  -0.058148   0.417294
    35  H    0.000710   0.018108  -0.001296  -0.011838  -0.055561  -0.002571
    36  H   -0.000074  -0.006150   0.002305   0.006068  -0.045702  -0.012453
    37  H    0.000690  -0.028686   0.000172  -0.007450  -0.056625   0.001764
              31         32         33         34         35         36
     1  C   -0.000022  -0.000004   0.000003  -0.000002   0.000006  -0.000003
     2  C   -0.000002   0.000001   0.000000   0.000001   0.000000   0.000000
     3  C   -0.000894  -0.000215   0.000121  -0.000193   0.000042  -0.000063
     4  O    0.000000   0.000000   0.000000   0.000000   0.000000   0.000000
     5  C    0.000000  -0.000001   0.000000  -0.000003   0.000000   0.000000
     6  H    0.000000   0.000000   0.000000   0.000000   0.000000   0.000000
     7  C    0.000089   0.000051  -0.000026  -0.000027  -0.000003   0.000011
     8  C   -0.002537  -0.000667   0.000471  -0.000825  -0.000045  -0.000284
     9  H   -0.000006  -0.000001   0.000000  -0.000001   0.000000   0.000000
    10  C    0.000020   0.000034  -0.000010   0.000014   0.000001   0.000003
    11  H    0.000000   0.000000   0.000000   0.000000   0.000000   0.000000
    12  H   -0.000020   0.000012   0.000004  -0.000007   0.000002  -0.000004
    13  C   -0.008705  -0.001908   0.001210  -0.001516   0.000377  -0.000399
    14  O    0.000005   0.000000   0.000000   0.000000  -0.000001   0.000000
    15  H    0.000000   0.000000   0.000000   0.000001   0.000000   0.000000
    16  C    0.021242  -0.001054  -0.001173   0.000381  -0.001606   0.002496
    17  H    0.000195  -0.000522   0.000010  -0.000212  -0.000058   0.000072
    18  C   -0.143788  -0.013966   0.007190  -0.007036  -0.001976  -0.006647
    19  H   -0.000517   0.000134  -0.000042   0.000068  -0.000030   0.000006
    20  C   -0.044041  -0.013565   0.003441  -0.007503  -0.007576   0.005606
    21  C   -0.082073  -0.006587   0.010930  -0.002683  -0.014579  -0.017653
    22  H   -0.000106   0.003213  -0.000328   0.001422   0.000125  -0.000493
    23  C   -0.136822   0.029947   0.024986   0.019475  -0.016795   0.012009
    24  C    0.218511  -0.012693   0.001523  -0.001803   0.017666   0.026298
    25  H    0.002951  -0.000218  -0.000077  -0.000137   0.000710  -0.000074
    26  C   -0.119612   0.023055  -0.028941  -0.002314   0.018108  -0.006150
    27  H   -0.005224  -0.016040   0.008699  -0.011469  -0.001296   0.002305
    28  H    0.013502  -0.000716   0.001472  -0.000140  -0.011838   0.006068
    29  N    0.310807  -0.051634  -0.047171  -0.058148  -0.055561  -0.045702
    30  C   -0.117405   0.416675   0.402979   0.417294  -0.002571  -0.012453
    31  C    5.260360  -0.003008  -0.015823   0.002882   0.425382   0.400876
    32  H   -0.003008   0.564346  -0.021742  -0.063145   0.002641  -0.002682
    33  H   -0.015823  -0.021742   0.508199  -0.022188  -0.002185   0.013992
    34  H    0.002882  -0.063145  -0.022188   0.558579  -0.002319  -0.001647
    35  H    0.425382   0.002641  -0.002185  -0.002319   0.561835  -0.019039
    36  H    0.400876  -0.002682   0.013992  -0.001647  -0.019039   0.507093
    37  H    0.413730  -0.002352  -0.001898   0.001780  -0.062383  -0.022207
              37
     1  C    0.000008
     2  C    0.000000
     3  C    0.000094
     4  O    0.000000
     5  C    0.000000
     6  H    0.000000
     7  C   -0.000021
     8  C    0.000227
     9  H    0.000000
    10  C   -0.000003
    11  H    0.000000
    12  H    0.000001
    13  C    0.000448
    14  O   -0.000001
    15  H    0.000000
    16  C   -0.001263
    17  H    0.000048
    18  C    0.010428
    19  H   -0.000171
    20  C   -0.001004
    21  C    0.003765
    22  H   -0.000186
    23  C    0.002820
    24  C    0.011456
    25  H    0.000690
    26  C   -0.028686
    27  H    0.000172
    28  H   -0.007450
    29  N   -0.056625
    30  C    0.001764
    31  C    0.413730
    32  H   -0.002352
    33  H   -0.001898
    34  H    0.001780
    35  H   -0.062383
    36  H   -0.022207
    37  H    0.553014
 Mulliken charges:
               1
     1  C    0.192711
     2  C   -0.521048
     3  C    1.775133
     4  O   -0.350142
     5  C   -0.395807
     6  H    0.237433
     7  C   -1.273877
     8  C   -0.277375
     9  H    0.414620
    10  C   -0.438635
    11  H    0.207247
    12  H    0.118879
    13  C    0.203657
    14  O   -0.332426
    15  H    0.222595
    16  C    0.185760
    17  H   -0.170554
    18  C    0.807008
    19  H    0.248628
    20  C   -0.504693
    21  C   -0.278532
    22  H    0.169751
    23  C   -0.307540
    24  C   -0.320336
    25  H    0.213059
    26  C   -0.553221
    27  H    0.225451
    28  H    0.191238
    29  N    0.066506
    30  C   -0.391383
    31  C   -0.389945
    32  H    0.172613
    33  H    0.156371
    34  H    0.181420
    35  H    0.172965
    36  H    0.158667
    37  H    0.183805
 Sum of Mulliken charges =   0.00000
 Mulliken charges with hydrogens summed into heavy atoms:
               1
     1  C    0.192711
     2  C   -0.283615
     3  C    1.775133
     4  O    0.064478
     5  C   -0.188560
     7  C   -1.154999
     8  C   -0.277375
    10  C   -0.216040
    13  C    0.033103
    14  O   -0.332426
    16  C    0.434388
    18  C    0.807008
    20  C   -0.334942
    21  C   -0.065473
    23  C   -0.082089
    24  C   -0.129098
    26  C   -0.553221
    29  N    0.066506
    30  C    0.119021
    31  C    0.125492
 Electronic spatial extent (au):  <R**2>=          39837.8686
 Charge=              0.0000 electrons
 Dipole moment (field-independent basis, Debye):
    X=              7.3881    Y=             -1.5036    Z=             -6.0777  Tot=              9.6842
 Quadrupole moment (field-independent basis, Debye-Ang):
   XX=           -129.9512   YY=            -97.6476   ZZ=           -153.1046
   XY=            -33.2395   XZ=             33.6481   YZ=             39.9197
 Traceless Quadrupole moment (field-independent basis, Debye-Ang):
   XX=             -3.0501   YY=             29.2535   ZZ=            -26.2035
   XY=            -33.2395   XZ=             33.6481   YZ=             39.9197
 Octapole moment (field-independent basis, Debye-Ang**2):
  XXX=           1126.2154  YYY=           2144.1275  ZZZ=          -1096.5551  XYY=            465.4142
  XXY=            766.4788  XXZ=           -488.0973  XZZ=            559.1316  YZZ=           1003.7355
  YYZ=           -563.5618  XYZ=           -179.4559
 Hexadecapole moment (field-independent basis, Debye-Ang**3):
 XXXX=         -16577.6965 YYYY=         -30183.1514 ZZZZ=          -7813.5526 XXXY=          -7285.3063
 XXXZ=           5305.6632 YYYX=          -7752.6509 YYYZ=           7686.0875 ZZZX=           5705.0952
 ZZZY=           7110.0683 XXYY=          -7428.4763 XXZZ=          -5237.4071 YYZZ=          -7845.6283
 XXYZ=           2923.8951 YYXZ=           2444.2580 ZZXY=          -3767.5831
 N-N= 1.358388145374D+03 E-N=-4.725819981105D+03  KE= 8.591566902568D+02
 Leave Link  601 at Mon Jan 29 14:11:06 2018, MaxMem=  1879048192 cpu:         0.2
 (Enter /share/apps/gaussian/g09_D01/g09/l9999.exe)
 1\1\GINC-NXN33\SP\RwB97XD TD-FC\6-311++G(d,p)\C17H17N1O2\BTX008\29-Jan
 -2018\0\\#p wb97xd 6-311++G** td=(nstates=4) nosymm\\Title\\0,1\C,0,-7
 .196442,-6.840499,4.505462\C,0,-8.449309,-7.422935,4.256097\C,0,-6.116
 034,-7.043692,3.594826\O,0,-7.039043,-6.086733,5.611203\C,0,-8.641938,
 -8.219449,3.137063\H,0,-9.257309,-7.215866,4.95777\C,0,-6.35306,-7.866
 116,2.472996\C,0,-4.824246,-6.380928,3.862622\H,0,-6.04768,-5.756085,5
 .530263\C,0,-7.588796,-8.45099,2.241936\H,0,-9.619575,-8.665408,2.9472
 96\H,0,-5.552651,-8.063173,1.761606\C,0,-3.704178,-6.554956,2.976342\O
 ,0,-4.72679,-5.640966,4.908668\H,0,-7.737618,-9.088866,1.371175\C,0,-2
 .5213,-5.888071,3.164452\H,0,-3.810174,-7.242315,2.139497\C,0,-1.32060
 1,-6.014497,2.399224\H,0,-2.47843,-5.193048,4.010013\C,0,-1.146607,-6.
 949476,1.348586\C,0,-0.202155,-5.210226,2.725294\H,0,-1.971105,-7.6028
 04,1.060473\C,0,0.045604,-7.072357,0.673042\C,0,0.99793,-5.310047,2.05
 5673\H,0,-0.299533,-4.492713,3.54133\C,0,1.163557,-6.247449,0.999056\H
 ,0,0.121292,-7.809712,-0.121883\H,0,1.826104,-4.673106,2.356233\N,0,2.
 337452,-6.351839,0.324578\C,0,2.482783,-7.333867,-0.738608\C,0,3.45103
 9,-5.467412,0.638287\H,0,2.290163,-8.351594,-0.365237\H,0,3.502452,-7.
 293717,-1.132587\H,0,1.783202,-7.13262,-1.563458\H,0,3.150286,-4.41243
 4,0.549647\H,0,4.268925,-5.658559,-0.063239\H,0,3.818959,-5.636076,1.6
 62178\\Version=ES64L-G09RevD.01\HF=-863.1625464\RMSD=8.539e-09\PG=C01 
 [X(C17H17N1O2)]\\@


 I DO NOT KNOW WHAT I MAY APPEAR TO THE WORLD; BUT TO MYSELF
 I SEEM TO HAVE BEEN ONLY LIKE A BOY PLAYING ON THE SEASHORE,
 AND DIVERTING MYSELF IN NOW AND THEN FINDING A SMOOTHER PEBBLE
 OR A PRETTIER SHELL THAN ORDINARY, WHILST THE GREAT OCEAN OF
 TRUTH LAY ALL UNDISCOVERED BEFORE ME.
                                          -- NEWTON (1642-1726)
 Job cpu time:       0 days  2 hours 10 minutes  2.3 seconds.
 File lengths (MBytes):  RWF=    454 Int=      0 D2E=      0 Chk=     52 Scr=      1
 Normal termination of Gaussian 09 at Mon Jan 29 14:11:06 2018.
