 Entering Gaussian System, Link 0=g09
 Input=H_ap.com
 Output=H_ap.out
 Initial command:
 /share/apps/gaussian/g09_D01/g09/l1.exe "/tmp/4048846.1.chemistry.q/Gau-27850.inp" -scrdir="/tmp/4048846.1.chemistry.q/"
 Entering Link 1 = /share/apps/gaussian/g09_D01/g09/l1.exe PID=     27851.
  
 Copyright (c) 1988,1990,1992,1993,1995,1998,2003,2009,2013,
            Gaussian, Inc.  All Rights Reserved.
  
 This is part of the Gaussian(R) 09 program.  It is based on
 the Gaussian(R) 03 system (copyright 2003, Gaussian, Inc.),
 the Gaussian(R) 98 system (copyright 1998, Gaussian, Inc.),
 the Gaussian(R) 94 system (copyright 1995, Gaussian, Inc.),
 the Gaussian 92(TM) system (copyright 1992, Gaussian, Inc.),
 the Gaussian 90(TM) system (copyright 1990, Gaussian, Inc.),
 the Gaussian 88(TM) system (copyright 1988, Gaussian, Inc.),
 the Gaussian 86(TM) system (copyright 1986, Carnegie Mellon
 University), and the Gaussian 82(TM) system (copyright 1983,
 Carnegie Mellon University). Gaussian is a federally registered
 trademark of Gaussian, Inc.
  
 This software contains proprietary and confidential information,
 including trade secrets, belonging to Gaussian, Inc.
  
 This software is provided under written license and may be
 used, copied, transmitted, or stored only in accord with that
 written license.
  
 The following legend is applicable only to US Government
 contracts under FAR:
  
                    RESTRICTED RIGHTS LEGEND
  
 Use, reproduction and disclosure by the US Government is
 subject to restrictions as set forth in subparagraphs (a)
 and (c) of the Commercial Computer Software - Restricted
 Rights clause in FAR 52.227-19.
  
 Gaussian, Inc.
 340 Quinnipiac St., Bldg. 40, Wallingford CT 06492
  
  
 ---------------------------------------------------------------
 Warning -- This program may not be used in any manner that
 competes with the business of Gaussian, Inc. or will provide
 assistance to any competitor of Gaussian, Inc.  The licensee
 of this program is prohibited from giving any competitor of
 Gaussian, Inc. access to this program.  By using this program,
 the user acknowledges that Gaussian, Inc. is engaged in the
 business of creating and licensing software in the field of
 computational chemistry and represents and warrants to the
 licensee that it is not a competitor of Gaussian, Inc. and that
 it will not use this program in any manner prohibited above.
 ---------------------------------------------------------------
  

 Cite this work as:
 Gaussian 09, Revision D.01,
 M. J. Frisch, G. W. Trucks, H. B. Schlegel, G. E. Scuseria, 
 M. A. Robb, J. R. Cheeseman, G. Scalmani, V. Barone, B. Mennucci, 
 G. A. Petersson, H. Nakatsuji, M. Caricato, X. Li, H. P. Hratchian, 
 A. F. Izmaylov, J. Bloino, G. Zheng, J. L. Sonnenberg, M. Hada, 
 M. Ehara, K. Toyota, R. Fukuda, J. Hasegawa, M. Ishida, T. Nakajima, 
 Y. Honda, O. Kitao, H. Nakai, T. Vreven, J. A. Montgomery, Jr., 
 J. E. Peralta, F. Ogliaro, M. Bearpark, J. J. Heyd, E. Brothers, 
 K. N. Kudin, V. N. Staroverov, T. Keith, R. Kobayashi, J. Normand, 
 K. Raghavachari, A. Rendell, J. C. Burant, S. S. Iyengar, J. Tomasi, 
 M. Cossi, N. Rega, J. M. Millam, M. Klene, J. E. Knox, J. B. Cross, 
 V. Bakken, C. Adamo, J. Jaramillo, R. Gomperts, R. E. Stratmann, 
 O. Yazyev, A. J. Austin, R. Cammi, C. Pomelli, J. W. Ochterski, 
 R. L. Martin, K. Morokuma, V. G. Zakrzewski, G. A. Voth, 
 P. Salvador, J. J. Dannenberg, S. Dapprich, A. D. Daniels, 
 O. Farkas, J. B. Foresman, J. V. Ortiz, J. Cioslowski, 
 and D. J. Fox, Gaussian, Inc., Wallingford CT, 2013.
 
 ******************************************
 Gaussian 09:  ES64L-G09RevD.01 24-Apr-2013
                26-Sep-2017 
 ******************************************
 %chk=H_ap.chk
 %nproc=2
 Will use up to    2 processors via shared memory.
 %mem=14GB
 --------------------------------------
 #p wb97xd 6-31G* nosymm td=(nstates=2)
 --------------------------------------
 1/38=1/1;
 2/12=2,15=1,17=6,18=5,40=1/2;
 3/5=1,6=6,7=1,11=9,16=1,25=1,30=1,74=-58/1,2,8,3;
 4//1;
 5/5=2,38=5/2;
 8/6=1,10=2,108=2/1;
 9/41=2,42=1,70=2/14;
 6/7=2,8=2,9=2,10=2/1;
 99/5=1,9=1/99;
 Leave Link    1 at Tue Sep 26 17:45:36 2017, MaxMem=  1879048192 cpu:         0.1
 (Enter /share/apps/gaussian/g09_D01/g09/l101.exe)
 -----
 Title
 -----
 Symbolic Z-matrix:
 Charge =  0 Multiplicity = 1
 C                    -2.56105   2.95411   1.80065 
 C                    -1.45361   2.12371   2.11922 
 C                    -2.39512   3.88403   0.74633 
 N                    -3.73509   2.85484   2.47858 
 C                    -0.25734   2.25482   1.45278 
 H                    -1.53551   1.37926   2.89957 
 C                    -1.18956   3.98831   0.08809 
 H                    -3.21932   4.51426   0.44193 
 C                    -3.87422   1.87605   3.53812 
 C                    -4.83908   3.74425   2.16587 
 C                    -0.07965   3.19175   0.41715 
 H                     0.56568   1.61001   1.74609 
 H                    -1.09098   4.71051  -0.71695 
 H                    -3.76078   0.85389   3.15552 
 H                    -4.86203   1.96688   3.98612 
 H                    -3.13454   2.03615   4.33013 
 H                    -4.54422   4.79409   2.27289 
 H                    -5.65797   3.55415   2.85968 
 H                    -5.21201   3.5883    1.1478 
 C                     1.14201   3.33482  -0.3343 
 C                     2.30472   2.65957  -0.16214 
 H                     1.11901   4.06021  -1.14789 
 C                     3.425     2.8882   -1.05961 
 H                     2.40724   1.92844   0.62966 
 C                     4.73058   2.22823  -0.80733 
 O                     3.29766   3.63518  -2.05758 
 C                     5.78411   2.39456  -1.7395 
 C                     4.9796    1.44285   0.33263 
 H                     4.72778   3.52241  -2.78625 
 C                     7.02529   1.78447  -1.5195 
 O                     5.6386    3.12943  -2.85344 
 C                     6.20481   0.83884   0.54392 
 H                     4.20399   1.30228   1.07442 
 C                     7.23118   1.01541  -0.38851 
 H                     7.81394   1.95538  -2.24355 
 H                     6.36747   0.24963   1.43761 
 H                     8.20186   0.56089  -0.21421 
 C                     2.58138  -2.10589  -1.79035 
 C                     1.46959  -2.92571  -2.11478 
 C                     2.4183   -1.17289  -0.73948 
 N                     3.7607   -2.22074  -2.46354 
 C                     0.27562  -2.79722  -1.44193 
 H                     1.54381  -3.65915  -2.90688 
 C                     1.21316  -1.06845  -0.07692 
 H                     3.23901  -0.53269  -0.44076 
 C                     3.8899   -3.19103  -3.53123 
 C                     4.88429  -1.37099  -2.11673 
 C                     0.10387  -1.86764  -0.40018 
 H                    -0.55002  -3.43786  -1.73848 
 H                     1.11437  -0.33849   0.72118 
 H                     3.76827  -4.21828  -3.16427 
 H                     4.8785   -3.10471  -3.97868 
 H                     3.15148  -3.01996  -4.32224 
 H                     4.64121  -0.3091   -2.24609 
 H                     5.7255   -1.6058   -2.76957 
 H                     5.2062   -1.52794  -1.08139 
 C                    -1.1174   -1.73254   0.3612 
 C                    -2.27635  -2.40992   0.1825 
 H                    -1.0912   -1.01527   1.18203 
 C                    -3.39808  -2.21331   1.09092 
 H                    -2.37926  -3.1241   -0.62463 
 C                    -4.70039  -2.87169   0.8255 
 O                    -3.26592  -1.49496   2.10843 
 C                    -5.76572  -2.70032   1.74455 
 C                    -4.94173  -3.65594  -0.31879 
 H                    -4.71165  -1.60365   2.83003 
 C                    -7.01369  -3.28613   1.49892 
 O                    -5.62779  -1.9824    2.87044 
 C                    -6.16904  -4.24869  -0.54687 
 H                    -4.15779  -3.80628  -1.05003 
 C                    -7.21108  -4.05196   0.36539 
 H                    -7.81539  -3.10458   2.20559 
 H                    -6.32249  -4.84456  -1.43845 
 H                    -8.18812  -4.4875    0.17876 
 
 NAtoms=     74 NQM=       74 NQMF=       0 NMMI=      0 NMMIF=      0
                NMic=       0 NMicF=      0.
                    Isotopes and Nuclear Properties:
 (Nuclear quadrupole moments (NQMom) in fm**2, nuclear magnetic moments (NMagM)
  in nuclear magnetons)

  Atom         1           2           3           4           5           6           7           8           9          10
 IAtWgt=          12          12          12          14          12           1          12           1          12          12
 AtmWgt=  12.0000000  12.0000000  12.0000000  14.0030740  12.0000000   1.0078250  12.0000000   1.0078250  12.0000000  12.0000000
 NucSpn=           0           0           0           2           0           1           0           1           0           0
 AtZEff=   0.0000000   0.0000000   0.0000000   0.0000000   0.0000000   0.0000000   0.0000000   0.0000000   0.0000000   0.0000000
 NQMom=    0.0000000   0.0000000   0.0000000   2.0440000   0.0000000   0.0000000   0.0000000   0.0000000   0.0000000   0.0000000
 NMagM=    0.0000000   0.0000000   0.0000000   0.4037610   0.0000000   2.7928460   0.0000000   2.7928460   0.0000000   0.0000000
 AtZNuc=   6.0000000   6.0000000   6.0000000   7.0000000   6.0000000   1.0000000   6.0000000   1.0000000   6.0000000   6.0000000

  Atom        11          12          13          14          15          16          17          18          19          20
 IAtWgt=          12           1           1           1           1           1           1           1           1          12
 AtmWgt=  12.0000000   1.0078250   1.0078250   1.0078250   1.0078250   1.0078250   1.0078250   1.0078250   1.0078250  12.0000000
 NucSpn=           0           1           1           1           1           1           1           1           1           0
 AtZEff=   0.0000000   0.0000000   0.0000000   0.0000000   0.0000000   0.0000000   0.0000000   0.0000000   0.0000000   0.0000000
 NQMom=    0.0000000   0.0000000   0.0000000   0.0000000   0.0000000   0.0000000   0.0000000   0.0000000   0.0000000   0.0000000
 NMagM=    0.0000000   2.7928460   2.7928460   2.7928460   2.7928460   2.7928460   2.7928460   2.7928460   2.7928460   0.0000000
 AtZNuc=   6.0000000   1.0000000   1.0000000   1.0000000   1.0000000   1.0000000   1.0000000   1.0000000   1.0000000   6.0000000

  Atom        21          22          23          24          25          26          27          28          29          30
 IAtWgt=          12           1          12           1          12          16          12          12           1          12
 AtmWgt=  12.0000000   1.0078250  12.0000000   1.0078250  12.0000000  15.9949146  12.0000000  12.0000000   1.0078250  12.0000000
 NucSpn=           0           1           0           1           0           0           0           0           1           0
 AtZEff=   0.0000000   0.0000000   0.0000000   0.0000000   0.0000000   0.0000000   0.0000000   0.0000000   0.0000000   0.0000000
 NQMom=    0.0000000   0.0000000   0.0000000   0.0000000   0.0000000   0.0000000   0.0000000   0.0000000   0.0000000   0.0000000
 NMagM=    0.0000000   2.7928460   0.0000000   2.7928460   0.0000000   0.0000000   0.0000000   0.0000000   2.7928460   0.0000000
 AtZNuc=   6.0000000   1.0000000   6.0000000   1.0000000   6.0000000   8.0000000   6.0000000   6.0000000   1.0000000   6.0000000

  Atom        31          32          33          34          35          36          37          38          39          40
 IAtWgt=          16          12           1          12           1           1           1          12          12          12
 AtmWgt=  15.9949146  12.0000000   1.0078250  12.0000000   1.0078250   1.0078250   1.0078250  12.0000000  12.0000000  12.0000000
 NucSpn=           0           0           1           0           1           1           1           0           0           0
 AtZEff=   0.0000000   0.0000000   0.0000000   0.0000000   0.0000000   0.0000000   0.0000000   0.0000000   0.0000000   0.0000000
 NQMom=    0.0000000   0.0000000   0.0000000   0.0000000   0.0000000   0.0000000   0.0000000   0.0000000   0.0000000   0.0000000
 NMagM=    0.0000000   0.0000000   2.7928460   0.0000000   2.7928460   2.7928460   2.7928460   0.0000000   0.0000000   0.0000000
 AtZNuc=   8.0000000   6.0000000   1.0000000   6.0000000   1.0000000   1.0000000   1.0000000   6.0000000   6.0000000   6.0000000

  Atom        41          42          43          44          45          46          47          48          49          50
 IAtWgt=          14          12           1          12           1          12          12          12           1           1
 AtmWgt=  14.0030740  12.0000000   1.0078250  12.0000000   1.0078250  12.0000000  12.0000000  12.0000000   1.0078250   1.0078250
 NucSpn=           2           0           1           0           1           0           0           0           1           1
 AtZEff=   0.0000000   0.0000000   0.0000000   0.0000000   0.0000000   0.0000000   0.0000000   0.0000000   0.0000000   0.0000000
 NQMom=    2.0440000   0.0000000   0.0000000   0.0000000   0.0000000   0.0000000   0.0000000   0.0000000   0.0000000   0.0000000
 NMagM=    0.4037610   0.0000000   2.7928460   0.0000000   2.7928460   0.0000000   0.0000000   0.0000000   2.7928460   2.7928460
 AtZNuc=   7.0000000   6.0000000   1.0000000   6.0000000   1.0000000   6.0000000   6.0000000   6.0000000   1.0000000   1.0000000

  Atom        51          52          53          54          55          56          57          58          59          60
 IAtWgt=           1           1           1           1           1           1          12          12           1          12
 AtmWgt=   1.0078250   1.0078250   1.0078250   1.0078250   1.0078250   1.0078250  12.0000000  12.0000000   1.0078250  12.0000000
 NucSpn=           1           1           1           1           1           1           0           0           1           0
 AtZEff=   0.0000000   0.0000000   0.0000000   0.0000000   0.0000000   0.0000000   0.0000000   0.0000000   0.0000000   0.0000000
 NQMom=    0.0000000   0.0000000   0.0000000   0.0000000   0.0000000   0.0000000   0.0000000   0.0000000   0.0000000   0.0000000
 NMagM=    2.7928460   2.7928460   2.7928460   2.7928460   2.7928460   2.7928460   0.0000000   0.0000000   2.7928460   0.0000000
 AtZNuc=   1.0000000   1.0000000   1.0000000   1.0000000   1.0000000   1.0000000   6.0000000   6.0000000   1.0000000   6.0000000

  Atom        61          62          63          64          65          66          67          68          69          70
 IAtWgt=           1          12          16          12          12           1          12          16          12           1
 AtmWgt=   1.0078250  12.0000000  15.9949146  12.0000000  12.0000000   1.0078250  12.0000000  15.9949146  12.0000000   1.0078250
 NucSpn=           1           0           0           0           0           1           0           0           0           1
 AtZEff=   0.0000000   0.0000000   0.0000000   0.0000000   0.0000000   0.0000000   0.0000000   0.0000000   0.0000000   0.0000000
 NQMom=    0.0000000   0.0000000   0.0000000   0.0000000   0.0000000   0.0000000   0.0000000   0.0000000   0.0000000   0.0000000
 NMagM=    2.7928460   0.0000000   0.0000000   0.0000000   0.0000000   2.7928460   0.0000000   0.0000000   0.0000000   2.7928460
 AtZNuc=   1.0000000   6.0000000   8.0000000   6.0000000   6.0000000   1.0000000   6.0000000   8.0000000   6.0000000   1.0000000

  Atom        71          72          73          74
 IAtWgt=          12           1           1           1
 AtmWgt=  12.0000000   1.0078250   1.0078250   1.0078250
 NucSpn=           0           1           1           1
 AtZEff=   0.0000000   0.0000000   0.0000000   0.0000000
 NQMom=    0.0000000   0.0000000   0.0000000   0.0000000
 NMagM=    0.0000000   2.7928460   2.7928460   2.7928460
 AtZNuc=   6.0000000   1.0000000   1.0000000   1.0000000
 Leave Link  101 at Tue Sep 26 17:45:36 2017, MaxMem=  1879048192 cpu:         0.2
 (Enter /share/apps/gaussian/g09_D01/g09/l202.exe)
 Symmetry turned off by external request.
 Stoichiometry    C34H34N2O4
 Framework group  C1[X(C34H34N2O4)]
 Deg. of freedom   216
 Full point group                 C1      NOp   1
                          Input orientation:                          
 ---------------------------------------------------------------------
 Center     Atomic      Atomic             Coordinates (Angstroms)
 Number     Number       Type             X           Y           Z
 ---------------------------------------------------------------------
      1          6           0       -2.561045    2.954113    1.800653
      2          6           0       -1.453614    2.123705    2.119220
      3          6           0       -2.395118    3.884027    0.746328
      4          7           0       -3.735091    2.854836    2.478577
      5          6           0       -0.257335    2.254822    1.452784
      6          1           0       -1.535511    1.379261    2.899570
      7          6           0       -1.189555    3.988311    0.088085
      8          1           0       -3.219319    4.514257    0.441933
      9          6           0       -3.874215    1.876051    3.538120
     10          6           0       -4.839077    3.744247    2.165869
     11          6           0       -0.079646    3.191747    0.417146
     12          1           0        0.565679    1.610013    1.746085
     13          1           0       -1.090979    4.710509   -0.716946
     14          1           0       -3.760779    0.853886    3.155524
     15          1           0       -4.862027    1.966878    3.986117
     16          1           0       -3.134539    2.036154    4.330126
     17          1           0       -4.544216    4.794091    2.272894
     18          1           0       -5.657968    3.554154    2.859682
     19          1           0       -5.212008    3.588295    1.147805
     20          6           0        1.142009    3.334818   -0.334298
     21          6           0        2.304719    2.659570   -0.162136
     22          1           0        1.119006    4.060213   -1.147889
     23          6           0        3.424995    2.888199   -1.059609
     24          1           0        2.407243    1.928444    0.629659
     25          6           0        4.730578    2.228227   -0.807332
     26          8           0        3.297663    3.635176   -2.057585
     27          6           0        5.784111    2.394560   -1.739495
     28          6           0        4.979595    1.442845    0.332629
     29          1           0        4.727780    3.522407   -2.786250
     30          6           0        7.025290    1.784468   -1.519498
     31          8           0        5.638602    3.129431   -2.853437
     32          6           0        6.204812    0.838836    0.543916
     33          1           0        4.203990    1.302276    1.074422
     34          6           0        7.231178    1.015415   -0.388505
     35          1           0        7.813944    1.955377   -2.243553
     36          1           0        6.367472    0.249632    1.437610
     37          1           0        8.201859    0.560885   -0.214210
     38          6           0        2.581379   -2.105893   -1.790351
     39          6           0        1.469589   -2.925706   -2.114778
     40          6           0        2.418297   -1.172891   -0.739484
     41          7           0        3.760702   -2.220740   -2.463536
     42          6           0        0.275622   -2.797215   -1.441929
     43          1           0        1.543808   -3.659152   -2.906877
     44          6           0        1.213161   -1.068453   -0.076918
     45          1           0        3.239008   -0.532688   -0.440757
     46          6           0        3.889903   -3.191034   -3.531233
     47          6           0        4.884294   -1.370986   -2.116734
     48          6           0        0.103869   -1.867639   -0.400177
     49          1           0       -0.550023   -3.437858   -1.738482
     50          1           0        1.114370   -0.338494    0.721184
     51          1           0        3.768271   -4.218275   -3.164267
     52          1           0        4.878499   -3.104711   -3.978679
     53          1           0        3.151480   -3.019964   -4.322237
     54          1           0        4.641213   -0.309097   -2.246088
     55          1           0        5.725497   -1.605799   -2.769569
     56          1           0        5.206196   -1.527935   -1.081389
     57          6           0       -1.117404   -1.732539    0.361203
     58          6           0       -2.276353   -2.409923    0.182500
     59          1           0       -1.091198   -1.015275    1.182031
     60          6           0       -3.398076   -2.213310    1.090916
     61          1           0       -2.379263   -3.124101   -0.624627
     62          6           0       -4.700390   -2.871687    0.825503
     63          8           0       -3.265917   -1.494962    2.108429
     64          6           0       -5.765720   -2.700323    1.744545
     65          6           0       -4.941727   -3.655942   -0.318788
     66          1           0       -4.711652   -1.603647    2.830030
     67          6           0       -7.013689   -3.286127    1.498915
     68          8           0       -5.627792   -1.982401    2.870442
     69          6           0       -6.169035   -4.248695   -0.546866
     70          1           0       -4.157788   -3.806279   -1.050026
     71          6           0       -7.211084   -4.051961    0.365389
     72          1           0       -7.815385   -3.104576    2.205589
     73          1           0       -6.322494   -4.844558   -1.438454
     74          1           0       -8.188118   -4.487504    0.178763
 ---------------------------------------------------------------------
 Rotational constants (GHZ):      0.1206548      0.0444825      0.0348824
 Leave Link  202 at Tue Sep 26 17:45:36 2017, MaxMem=  1879048192 cpu:         0.0
 (Enter /share/apps/gaussian/g09_D01/g09/l301.exe)
 Standard basis: 6-31G(d) (6D, 7F)
 Ernie: Thresh=  0.10000D-02 Tol=  0.10000D-05 Strict=F.
   668 basis functions,  1256 primitive gaussians,   668 cartesian basis functions
   142 alpha electrons      142 beta electrons
       nuclear repulsion energy      4199.8742183936 Hartrees.
 IExCor= 4639 DFT=T Ex+Corr=wB97XD ExCW=0 ScaHFX=  1.000000
 ScaDFX=  1.000000  1.000000  1.000000  1.000000 ScalE2=  1.000000  1.000000
 IRadAn=      0 IRanWt=     -1 IRanGd=            0 ICorTp=0 IEmpDi=121
  HFx wShort=  0.000000 wLong=  0.200000 cFull=  0.222036 cShort=  0.000000 cLong=  0.777964
  DFx wShort=  0.000000 wLong=  0.200000 cFull=  0.000000 cShort=  0.000000 cLong=  1.000000
 NAtoms=   74 NActive=   74 NUniq=   74 SFac= 1.00D+00 NAtFMM=   60 NAOKFM=T Big=T
 Integral buffers will be    131072 words long.
 Raffenetti 1 integral format.
 Two-electron integral symmetry is turned off.
 R6Disp:  Grimme-D2 Dispersion energy=       -0.0590916611 Hartrees.
 Nuclear repulsion after empirical dispersion term =     4199.8151267325 Hartrees.
 Leave Link  301 at Tue Sep 26 17:45:36 2017, MaxMem=  1879048192 cpu:         0.1
 (Enter /share/apps/gaussian/g09_D01/g09/l302.exe)
 NPDir=0 NMtPBC=     1 NCelOv=     1 NCel=       1 NClECP=     1 NCelD=      1
         NCelK=      1 NCelE2=     1 NClLst=     1 CellRange=     0.0.
 One-electron integrals computed using PRISM.
 NBasis=   668 RedAO= T EigKep=  3.39D-04  NBF=   668
 NBsUse=   668 1.00D-06 EigRej= -1.00D+00 NBFU=   668
 Precomputing XC quadrature grid using
 IXCGrd= 4 IRadAn=           0 IRanWt=          -1 IRanGd=           0 AccXCQ= 0.00D+00.
 Generated NRdTot=       0 NPtTot=           0 NUsed=           0 NTot=          32
 NSgBfM=   640   640   640   640   640 MxSgAt=    74 MxSgA2=    74.
 Leave Link  302 at Tue Sep 26 17:45:38 2017, MaxMem=  1879048192 cpu:         4.6
 (Enter /share/apps/gaussian/g09_D01/g09/l308.exe)
 Leave Link  308 at Tue Sep 26 17:45:38 2017, MaxMem=  1879048192 cpu:         0.2
 (Enter /share/apps/gaussian/g09_D01/g09/l303.exe)
 DipDrv:  MaxL=1.
 Leave Link  303 at Tue Sep 26 17:45:38 2017, MaxMem=  1879048192 cpu:         0.2
 (Enter /share/apps/gaussian/g09_D01/g09/l401.exe)
 ExpMin= 1.61D-01 ExpMax= 5.48D+03 ExpMxC= 8.25D+02 IAcc=1 IRadAn=         1 AccDes= 0.00D+00
 Harris functional with IExCor= 4639 and IRadAn=       1 diagonalized for initial guess.
 HarFok:  IExCor= 4639 AccDes= 0.00D+00 IRadAn=         1 IDoV= 1 UseB2=F ITyADJ=14
 ICtDFT=  3500011 ScaDFX=  1.000000  1.000000  1.000000  1.000000
 FoFCou: FMM=F IPFlag=           0 FMFlag=      100000 FMFlg1=        2001
         NFxFlg=           0 DoJE=T BraDBF=F KetDBF=T FulRan=T
         wScrn=  0.000000 ICntrl=     500 IOpCl=  0 I1Cent=   200000004 NGrid=           0
         NMat0=    1 NMatS0=      1 NMatT0=    0 NMatD0=    1 NMtDS0=    0 NMtDT0=    0
 Symmetry not used in FoFCou.
 Harris En= -1650.49056096673    
 JPrj=0 DoOrth=F DoCkMO=F.
 Leave Link  401 at Tue Sep 26 17:45:44 2017, MaxMem=  1879048192 cpu:        11.5
 (Enter /share/apps/gaussian/g09_D01/g09/l502.exe)
 Closed shell SCF:
 Using DIIS extrapolation, IDIIS=  1040.
 Two-electron integral symmetry not used.
 IVT=     1365386 IEndB=     1365386 NGot=  1879048192 MDV=  1878146339
 LenX=  1878146339 LenY=  1877699447
 Requested convergence on RMS density matrix=1.00D-08 within 128 cycles.
 Requested convergence on MAX density matrix=1.00D-06.
 Requested convergence on             energy=1.00D-06.
 No special actions if energy rises.
 Fock matrices will be formed incrementally for  20 cycles.
 Integral accuracy reduced to 1.0D-05 until final iterations.

 Cycle   1  Pass 0  IDiag  1:
 FoFJK:  IHMeth= 1 ICntrl=       0 DoSepK=T KAlg= 0 I1Cent=   0 FoldK=F
 IRaf=         1 NMat=   1 IRICut=       1 DoRegI=T DoRafI=F ISym2E= 0.
 FoFCou: FMM=T IPFlag=           0 FMFlag=      100000 FMFlg1=        2001
         NFxFlg=           0 DoJE=T BraDBF=F KetDBF=F FulRan=T
         wScrn=  0.000000 ICntrl=     500 IOpCl=  0 I1Cent=           0 NGrid=           0
         NMat0=    1 NMatS0=      1 NMatT0=    0 NMatD0=    1 NMtDS0=    0 NMtDT0=    0
 Symmetry not used in FoFCou.
 FMM levels:  10  Number of levels for PrismC:   9
 E= -1725.43027223095    
 DIIS: error= 6.11D-02 at cycle   1 NSaved=   1.
 NSaved= 1 IEnMin= 1 EnMin= -1725.43027223095     IErMin= 1 ErrMin= 6.11D-02
 ErrMax= 6.11D-02  0.00D+00 EMaxC= 1.00D-01 BMatC= 1.67D+00 BMatP= 1.67D+00
 IDIUse=3 WtCom= 3.89D-01 WtEn= 6.11D-01
 Coeff-Com:  0.100D+01
 Coeff-En:   0.100D+01
 Coeff:      0.100D+01
 Gap=     0.277 Goal=   None    Shift=    0.000
 GapD=    0.277 DampG=1.000 DampE=0.500 DampFc=0.5000 IDamp=-1.
 Damping current iteration by 5.00D-01
 RMSDP=2.15D-03 MaxDP=1.15D-01              OVMax= 1.85D-01

 Cycle   2  Pass 0  IDiag  1:
 RMSU=  1.07D-03    CP:  9.98D-01
 E= -1725.65221009095     Delta-E=       -0.221937860005 Rises=F Damp=T
 DIIS: error= 3.09D-02 at cycle   2 NSaved=   2.
 NSaved= 2 IEnMin= 2 EnMin= -1725.65221009095     IErMin= 2 ErrMin= 3.09D-02
 ErrMax= 3.09D-02  0.00D+00 EMaxC= 1.00D-01 BMatC= 3.54D-01 BMatP= 1.67D+00
 IDIUse=3 WtCom= 6.91D-01 WtEn= 3.09D-01
 Coeff-Com: -0.433D+00 0.143D+01
 Coeff-En:   0.000D+00 0.100D+01
 Coeff:     -0.299D+00 0.130D+01
 Gap=     0.270 Goal=   None    Shift=    0.000
 RMSDP=9.59D-04 MaxDP=4.45D-02 DE=-2.22D-01 OVMax= 1.86D-01

 Cycle   3  Pass 0  IDiag  1:
 RMSU=  9.58D-04    CP:  1.00D+00  1.04D+00
 E= -1725.81842744469     Delta-E=       -0.166217353738 Rises=F Damp=F
 DIIS: error= 1.08D-02 at cycle   3 NSaved=   3.
 NSaved= 3 IEnMin= 3 EnMin= -1725.81842744469     IErMin= 3 ErrMin= 1.08D-02
 ErrMax= 1.08D-02  0.00D+00 EMaxC= 1.00D-01 BMatC= 1.14D-01 BMatP= 3.54D-01
 IDIUse=3 WtCom= 8.92D-01 WtEn= 1.08D-01
 Coeff-Com: -0.323D+00 0.670D+00 0.653D+00
 Coeff-En:   0.000D+00 0.000D+00 0.100D+01
 Coeff:     -0.288D+00 0.598D+00 0.691D+00
 Gap=     0.260 Goal=   None    Shift=    0.000
 RMSDP=6.22D-04 MaxDP=3.96D-02 DE=-1.66D-01 OVMax= 8.41D-02

 Cycle   4  Pass 0  IDiag  1:
 RMSU=  2.22D-04    CP:  9.97D-01  1.47D+00  6.25D-01
 E= -1725.91535754161     Delta-E=       -0.096930096919 Rises=F Damp=F
 DIIS: error= 3.18D-03 at cycle   4 NSaved=   4.
 NSaved= 4 IEnMin= 4 EnMin= -1725.91535754161     IErMin= 4 ErrMin= 3.18D-03
 ErrMax= 3.18D-03  0.00D+00 EMaxC= 1.00D-01 BMatC= 8.38D-03 BMatP= 1.14D-01
 IDIUse=3 WtCom= 9.68D-01 WtEn= 3.18D-02
 Coeff-Com: -0.143D+00 0.290D+00 0.379D+00 0.473D+00
 Coeff-En:   0.000D+00 0.000D+00 0.000D+00 0.100D+01
 Coeff:     -0.138D+00 0.281D+00 0.367D+00 0.490D+00
 Gap=     0.241 Goal=   None    Shift=    0.000
 RMSDP=1.38D-04 MaxDP=1.03D-02 DE=-9.69D-02 OVMax= 1.45D-02

 Cycle   5  Pass 0  IDiag  1:
 RMSU=  7.62D-05    CP:  9.98D-01  1.41D+00  7.10D-01  7.66D-01
 E= -1725.92256765589     Delta-E=       -0.007210114280 Rises=F Damp=F
 DIIS: error= 3.07D-04 at cycle   5 NSaved=   5.
 NSaved= 5 IEnMin= 5 EnMin= -1725.92256765589     IErMin= 5 ErrMin= 3.07D-04
 ErrMax= 3.07D-04  0.00D+00 EMaxC= 1.00D-01 BMatC= 1.74D-04 BMatP= 8.38D-03
 IDIUse=3 WtCom= 9.97D-01 WtEn= 3.07D-03
 Coeff-Com: -0.298D-03-0.777D-03 0.307D-01 0.124D+00 0.846D+00
 Coeff-En:   0.000D+00 0.000D+00 0.000D+00 0.000D+00 0.100D+01
 Coeff:     -0.298D-03-0.774D-03 0.306D-01 0.124D+00 0.847D+00
 Gap=     0.241 Goal=   None    Shift=    0.000
 RMSDP=4.10D-05 MaxDP=2.06D-03 DE=-7.21D-03 OVMax= 7.64D-03

 Cycle   6  Pass 0  IDiag  1:
 RMSU=  2.99D-05    CP:  9.97D-01  1.41D+00  7.20D-01  8.76D-01  1.11D+00
 E= -1725.92287465732     Delta-E=       -0.000307001434 Rises=F Damp=F
 DIIS: error= 2.25D-04 at cycle   6 NSaved=   6.
 NSaved= 6 IEnMin= 6 EnMin= -1725.92287465732     IErMin= 6 ErrMin= 2.25D-04
 ErrMax= 2.25D-04  0.00D+00 EMaxC= 1.00D-01 BMatC= 5.54D-05 BMatP= 1.74D-04
 IDIUse=3 WtCom= 9.98D-01 WtEn= 2.25D-03
 Coeff-Com:  0.312D-01-0.641D-01-0.665D-01-0.538D-01 0.406D+00 0.747D+00
 Coeff-En:   0.000D+00 0.000D+00 0.000D+00 0.000D+00 0.000D+00 0.100D+01
 Coeff:      0.311D-01-0.640D-01-0.663D-01-0.537D-01 0.405D+00 0.748D+00
 Gap=     0.243 Goal=   None    Shift=    0.000
 RMSDP=2.24D-05 MaxDP=1.18D-03 DE=-3.07D-04 OVMax= 5.88D-03

 Cycle   7  Pass 0  IDiag  1:
 RMSU=  1.49D-05    CP:  9.97D-01  1.42D+00  7.26D-01  9.13D-01  1.28D+00
                    CP:  1.10D+00
 E= -1725.92298363962     Delta-E=       -0.000108982296 Rises=F Damp=F
 DIIS: error= 9.05D-05 at cycle   7 NSaved=   7.
 NSaved= 7 IEnMin= 7 EnMin= -1725.92298363962     IErMin= 7 ErrMin= 9.05D-05
 ErrMax= 9.05D-05  0.00D+00 EMaxC= 1.00D-01 BMatC= 5.93D-06 BMatP= 5.54D-05
 IDIUse=1 WtCom= 1.00D+00 WtEn= 0.00D+00
 Coeff-Com:  0.793D-02-0.162D-01-0.191D-01-0.246D-01 0.170D-01 0.242D+00
 Coeff-Com:  0.793D+00
 Coeff:      0.793D-02-0.162D-01-0.191D-01-0.246D-01 0.170D-01 0.242D+00
 Coeff:      0.793D+00
 Gap=     0.243 Goal=   None    Shift=    0.000
 RMSDP=9.27D-06 MaxDP=3.05D-04 DE=-1.09D-04 OVMax= 2.10D-03

 Initial convergence to 1.0D-05 achieved.  Increase integral accuracy.
 Cycle   8  Pass 1  IDiag  1:
 E= -1725.92139858553     Delta-E=        0.001585054084 Rises=F Damp=F
 DIIS: error= 1.81D-04 at cycle   1 NSaved=   1.
 NSaved= 1 IEnMin= 1 EnMin= -1725.92139858553     IErMin= 1 ErrMin= 1.81D-04
 ErrMax= 1.81D-04  0.00D+00 EMaxC= 1.00D-01 BMatC= 2.81D-05 BMatP= 2.81D-05
 IDIUse=3 WtCom= 9.98D-01 WtEn= 1.81D-03
 Coeff-Com:  0.100D+01
 Coeff-En:   0.100D+01
 Coeff:      0.100D+01
 Gap=     0.243 Goal=   None    Shift=    0.000
 RMSDP=9.27D-06 MaxDP=3.05D-04 DE= 1.59D-03 OVMax= 1.31D-03

 Cycle   9  Pass 1  IDiag  1:
 RMSU=  8.96D-05    CP:  1.00D+00
 E= -1725.92142295730     Delta-E=       -0.000024371769 Rises=F Damp=F
 DIIS: error= 6.69D-05 at cycle   2 NSaved=   2.
 NSaved= 2 IEnMin= 2 EnMin= -1725.92142295730     IErMin= 2 ErrMin= 6.69D-05
 ErrMax= 6.69D-05  0.00D+00 EMaxC= 1.00D-01 BMatC= 2.05D-06 BMatP= 2.81D-05
 IDIUse=1 WtCom= 1.00D+00 WtEn= 0.00D+00
 Coeff-Com:  0.624D-01 0.938D+00
 Coeff:      0.624D-01 0.938D+00
 Gap=     0.243 Goal=   None    Shift=    0.000
 RMSDP=6.20D-06 MaxDP=2.05D-04 DE=-2.44D-05 OVMax= 6.27D-04

 Cycle  10  Pass 1  IDiag  1:
 RMSU=  4.77D-06    CP:  1.00D+00  1.04D+00
 E= -1725.92142370984     Delta-E=       -0.000000752540 Rises=F Damp=F
 DIIS: error= 6.24D-05 at cycle   3 NSaved=   3.
 NSaved= 3 IEnMin= 3 EnMin= -1725.92142370984     IErMin= 3 ErrMin= 6.24D-05
 ErrMax= 6.24D-05  0.00D+00 EMaxC= 1.00D-01 BMatC= 2.34D-06 BMatP= 2.05D-06
 IDIUse=1 WtCom= 1.00D+00 WtEn= 0.00D+00
 Coeff-Com: -0.358D-01 0.528D+00 0.507D+00
 Coeff:     -0.358D-01 0.528D+00 0.507D+00
 Gap=     0.243 Goal=   None    Shift=    0.000
 RMSDP=2.50D-06 MaxDP=1.33D-04 DE=-7.53D-07 OVMax= 3.61D-04

 Cycle  11  Pass 1  IDiag  1:
 RMSU=  1.74D-06    CP:  1.00D+00  1.05D+00  6.50D-01
 E= -1725.92142609788     Delta-E=       -0.000002388040 Rises=F Damp=F
 DIIS: error= 6.74D-06 at cycle   4 NSaved=   4.
 NSaved= 4 IEnMin= 4 EnMin= -1725.92142609788     IErMin= 4 ErrMin= 6.74D-06
 ErrMax= 6.74D-06  0.00D+00 EMaxC= 1.00D-01 BMatC= 5.14D-08 BMatP= 2.05D-06
 IDIUse=1 WtCom= 1.00D+00 WtEn= 0.00D+00
 Coeff-Com: -0.103D-01 0.532D-01 0.951D-01 0.862D+00
 Coeff:     -0.103D-01 0.532D-01 0.951D-01 0.862D+00
 Gap=     0.243 Goal=   None    Shift=    0.000
 RMSDP=8.97D-07 MaxDP=3.60D-05 DE=-2.39D-06 OVMax= 2.25D-04

 Cycle  12  Pass 1  IDiag  1:
 RMSU=  5.55D-07    CP:  1.00D+00  1.05D+00  7.38D-01  1.32D+00
 E= -1725.92142626838     Delta-E=       -0.000000170496 Rises=F Damp=F
 DIIS: error= 4.90D-06 at cycle   5 NSaved=   5.
 NSaved= 5 IEnMin= 5 EnMin= -1725.92142626838     IErMin= 5 ErrMin= 4.90D-06
 ErrMax= 4.90D-06  0.00D+00 EMaxC= 1.00D-01 BMatC= 2.22D-08 BMatP= 5.14D-08
 IDIUse=1 WtCom= 1.00D+00 WtEn= 0.00D+00
 Coeff-Com:  0.763D-02-0.158D+00-0.131D+00 0.415D+00 0.867D+00
 Coeff:      0.763D-02-0.158D+00-0.131D+00 0.415D+00 0.867D+00
 Gap=     0.243 Goal=   None    Shift=    0.000
 RMSDP=7.47D-07 MaxDP=2.67D-05 DE=-1.70D-07 OVMax= 2.17D-04

 Cycle  13  Pass 1  IDiag  1:
 RMSU=  3.14D-07    CP:  1.00D+00  1.05D+00  7.97D-01  1.67D+00  1.17D+00
 E= -1725.92142635342     Delta-E=       -0.000000085037 Rises=F Damp=F
 DIIS: error= 1.58D-06 at cycle   6 NSaved=   6.
 NSaved= 6 IEnMin= 6 EnMin= -1725.92142635342     IErMin= 6 ErrMin= 1.58D-06
 ErrMax= 1.58D-06  0.00D+00 EMaxC= 1.00D-01 BMatC= 3.88D-09 BMatP= 2.22D-08
 IDIUse=1 WtCom= 1.00D+00 WtEn= 0.00D+00
 Coeff-Com:  0.467D-02-0.663D-01-0.639D-01-0.169D-01 0.335D+00 0.807D+00
 Coeff:      0.467D-02-0.663D-01-0.639D-01-0.169D-01 0.335D+00 0.807D+00
 Gap=     0.243 Goal=   None    Shift=    0.000
 RMSDP=3.00D-07 MaxDP=9.48D-06 DE=-8.50D-08 OVMax= 8.52D-05

 Cycle  14  Pass 1  IDiag  1:
 RMSU=  1.07D-07    CP:  1.00D+00  1.05D+00  8.16D-01  1.80D+00  1.43D+00
                    CP:  1.14D+00
 E= -1725.92142636532     Delta-E=       -0.000000011905 Rises=F Damp=F
 DIIS: error= 1.09D-06 at cycle   7 NSaved=   7.
 NSaved= 7 IEnMin= 7 EnMin= -1725.92142636532     IErMin= 7 ErrMin= 1.09D-06
 ErrMax= 1.09D-06  0.00D+00 EMaxC= 1.00D-01 BMatC= 7.17D-10 BMatP= 3.88D-09
 IDIUse=1 WtCom= 1.00D+00 WtEn= 0.00D+00
 Coeff-Com:  0.317D-03 0.572D-02 0.849D-03-0.104D+00-0.347D-01 0.349D+00
 Coeff-Com:  0.783D+00
 Coeff:      0.317D-03 0.572D-02 0.849D-03-0.104D+00-0.347D-01 0.349D+00
 Coeff:      0.783D+00
 Gap=     0.243 Goal=   None    Shift=    0.000
 RMSDP=1.17D-07 MaxDP=4.21D-06 DE=-1.19D-08 OVMax= 3.10D-05

 Cycle  15  Pass 1  IDiag  1:
 RMSU=  4.15D-08    CP:  1.00D+00  1.05D+00  8.25D-01  1.84D+00  1.51D+00
                    CP:  1.31D+00  9.08D-01
 E= -1725.92142636698     Delta-E=       -0.000000001655 Rises=F Damp=F
 DIIS: error= 2.55D-07 at cycle   8 NSaved=   8.
 NSaved= 8 IEnMin= 8 EnMin= -1725.92142636698     IErMin= 8 ErrMin= 2.55D-07
 ErrMax= 2.55D-07  0.00D+00 EMaxC= 1.00D-01 BMatC= 9.26D-11 BMatP= 7.17D-10
 IDIUse=1 WtCom= 1.00D+00 WtEn= 0.00D+00
 Coeff-Com: -0.379D-03 0.980D-02 0.751D-02-0.422D-01-0.507D-01 0.621D-01
 Coeff-Com:  0.340D+00 0.674D+00
 Coeff:     -0.379D-03 0.980D-02 0.751D-02-0.422D-01-0.507D-01 0.621D-01
 Coeff:      0.340D+00 0.674D+00
 Gap=     0.243 Goal=   None    Shift=    0.000
 RMSDP=2.75D-08 MaxDP=1.24D-06 DE=-1.66D-09 OVMax= 5.50D-06

 Cycle  16  Pass 1  IDiag  1:
 RMSU=  1.63D-08    CP:  1.00D+00  1.05D+00  8.25D-01  1.85D+00  1.53D+00
                    CP:  1.34D+00  1.02D+00  9.34D-01
 E= -1725.92142636754     Delta-E=       -0.000000000563 Rises=F Damp=F
 DIIS: error= 1.01D-07 at cycle   9 NSaved=   9.
 NSaved= 9 IEnMin= 9 EnMin= -1725.92142636754     IErMin= 9 ErrMin= 1.01D-07
 ErrMax= 1.01D-07  0.00D+00 EMaxC= 1.00D-01 BMatC= 1.01D-11 BMatP= 9.26D-11
 IDIUse=1 WtCom= 1.00D+00 WtEn= 0.00D+00
 Coeff-Com: -0.175D-03 0.247D-02 0.247D-02 0.197D-02-0.130D-01-0.363D-01
 Coeff-Com: -0.771D-02 0.239D+00 0.811D+00
 Coeff:     -0.175D-03 0.247D-02 0.247D-02 0.197D-02-0.130D-01-0.363D-01
 Coeff:     -0.771D-02 0.239D+00 0.811D+00
 Gap=     0.243 Goal=   None    Shift=    0.000
 RMSDP=1.00D-08 MaxDP=3.12D-07 DE=-5.63D-10 OVMax= 1.96D-06

 Cycle  17  Pass 1  IDiag  1:
 RMSU=  5.07D-09    CP:  1.00D+00  1.05D+00  8.26D-01  1.85D+00  1.53D+00
                    CP:  1.35D+00  1.05D+00  1.09D+00  1.06D+00
 E= -1725.92142636721     Delta-E=        0.000000000328 Rises=F Damp=F
 DIIS: error= 2.27D-08 at cycle  10 NSaved=  10.
 NSaved=10 IEnMin= 9 EnMin= -1725.92142636754     IErMin=10 ErrMin= 2.27D-08
 ErrMax= 2.27D-08  0.00D+00 EMaxC= 1.00D-01 BMatC= 7.59D-13 BMatP= 1.01D-11
 IDIUse=1 WtCom= 1.00D+00 WtEn= 0.00D+00
 Coeff-Com:  0.873D-05-0.581D-03-0.325D-03 0.499D-02 0.317D-02-0.116D-01
 Coeff-Com: -0.366D-01-0.281D-01 0.132D+00 0.937D+00
 Coeff:      0.873D-05-0.581D-03-0.325D-03 0.499D-02 0.317D-02-0.116D-01
 Coeff:     -0.366D-01-0.281D-01 0.132D+00 0.937D+00
 Gap=     0.243 Goal=   None    Shift=    0.000
 RMSDP=3.69D-09 MaxDP=1.39D-07 DE= 3.28D-10 OVMax= 8.67D-07

 SCF Done:  E(RwB97XD) =  -1725.92142637     A.U. after   17 cycles
            NFock= 17  Conv=0.37D-08     -V/T= 2.0093
 KE= 1.710070040104D+03 PE=-1.240990367578D+04 EE= 4.774097082576D+03
 Leave Link  502 at Tue Sep 26 17:53:47 2017, MaxMem=  1879048192 cpu:       959.3
 (Enter /share/apps/gaussian/g09_D01/g09/l801.exe)
 DoSCS=F DFT=T ScalE2(SS,OS)=  1.000000  1.000000
 ExpMin= 1.61D-01 ExpMax= 5.48D+03 ExpMxC= 8.25D+02 IAcc=3 IRadAn=         5 AccDes= 0.00D+00
 HarFok:  IExCor=  205 AccDes= 0.00D+00 IRadAn=         5 IDoV=-2 UseB2=F ITyADJ=14
 ICtDFT= 12500011 ScaDFX=  1.000000  1.000000  1.000000  1.000000
 Largest valence mixing into a core orbital is  7.29D-05
 Largest core mixing into a valence orbital is  1.52D-05
 Range of M.O.s used for correlation:    41   668
 NBasis=   668 NAE=   142 NBE=   142 NFC=    40 NFV=     0
 NROrb=    628 NOA=   102 NOB=   102 NVA=   526 NVB=   526
 Leave Link  801 at Tue Sep 26 17:53:48 2017, MaxMem=  1879048192 cpu:         2.1
 (Enter /share/apps/gaussian/g09_D01/g09/l914.exe)
 RHF ground state
 MDV=  1879048192 DFT=T DoStab=F Mixed=T DoRPA=T DoScal=F NonHer=T
 Would need an additional        148055700000 words for in-memory AO integral storage.
 Making orbital integer symmetry assigments:
     8 initial guesses have been made.
 Convergence on wavefunction:    0.001000000000000
 Davidson Disk Diagonalization:  ConvIn= 1.00D-03 SkipCon=T Conv= 1.00D-03.
 Max sub-space:   200 roots to seek:     8 dimension of matrix:       107304
 Iteration     1 Dimension     8 NMult     0 NNew      8
 CISAX will form     8 AO SS matrices at one time.
 NMat=     8 NSing=     8 JSym2X= 0.
 FoFJK:  IHMeth= 1 ICntrl=       0 DoSepK=T KAlg= 0 I1Cent=   0 FoldK=F
 IRaf=         1 NMat=  16 IRICut=       1 DoRegI=T DoRafI=F ISym2E= 0.
 FoFCou: FMM=T IPFlag=           0 FMFlag=      100000 FMFlg1=        2001
         NFxFlg=           0 DoJE=F BraDBF=F KetDBF=F FulRan=T
         wScrn=  0.000000 ICntrl=     500 IOpCl=  0 I1Cent=           0 NGrid=           0
         NMat0=    8 NMatS0=      8 NMatT0=    0 NMatD0=    8 NMtDS0=    0 NMtDT0=    0
 Symmetry not used in FoFCou.
 FMM levels:  10  Number of levels for PrismC:   9
 New state      2 was old state      3
 Excitation Energies [eV] at current iteration:
 Root      1 :     4.030441051532422
 Root      2 :     4.237788626942899
 Root      3 :     4.275368540159930
 Root      4 :     4.343062673813265
 Root      5 :     4.900961445668433
 Root      6 :     4.976929861495506
 Root      7 :     6.114595279648928
 Root      8 :     6.161489946599961
 Iteration     2 Dimension    12 NMult     8 NNew      4
 CISAX will form     4 AO SS matrices at one time.
 NMat=     4 NSing=     4 JSym2X= 0.
 Root      1 not converged, maximum delta is    0.067248676730581
 Root      2 not converged, maximum delta is    0.279124590681426
 Excitation Energies [eV] at current iteration:
 Root      1 :     3.472178553675725   Change is   -0.558262497856697
 Root      2 :     3.732597679342206   Change is   -0.505190947600693
 Iteration     3 Dimension    16 NMult    12 NNew      4
 CISAX will form     4 AO SS matrices at one time.
 NMat=     4 NSing=     4 JSym2X= 0.
 Root      1 not converged, maximum delta is    0.016292308920250
 Root      2 not converged, maximum delta is    0.050792174255105
 Excitation Energies [eV] at current iteration:
 Root      1 :     3.426328544910079   Change is   -0.045850008765646
 Root      2 :     3.641806091846120   Change is   -0.090791587496086
 Iteration     4 Dimension    20 NMult    16 NNew      4
 CISAX will form     4 AO SS matrices at one time.
 NMat=     4 NSing=     4 JSym2X= 0.
 Root      1 not converged, maximum delta is    0.006437366147318
 Root      2 not converged, maximum delta is    0.007772784044852
 Excitation Energies [eV] at current iteration:
 Root      1 :     3.420598407833649   Change is   -0.005730137076431
 Root      2 :     3.631931496444123   Change is   -0.009874595401997
 Iteration     5 Dimension    24 NMult    20 NNew      4
 CISAX will form     4 AO SS matrices at one time.
 NMat=     4 NSing=     4 JSym2X= 0.
 Root      1 not converged, maximum delta is    0.002419351350895
 Root      2 not converged, maximum delta is    0.004079435281233
 Excitation Energies [eV] at current iteration:
 Root      1 :     3.419668002046222   Change is   -0.000930405787426
 Root      2 :     3.630004796863022   Change is   -0.001926699581101
 Iteration     6 Dimension    28 NMult    24 NNew      4
 CISAX will form     4 AO SS matrices at one time.
 NMat=     4 NSing=     4 JSym2X= 0.
 Root      1 not converged, maximum delta is    0.001329903367228
 Root      2 not converged, maximum delta is    0.003250813768181
 Excitation Energies [eV] at current iteration:
 Root      1 :     3.419516982823043   Change is   -0.000151019223180
 Root      2 :     3.629480559644600   Change is   -0.000524237218423
 Iteration     7 Dimension    32 NMult    28 NNew      4
 CISAX will form     4 AO SS matrices at one time.
 NMat=     4 NSing=     4 JSym2X= 0.
 Root      1 not converged, maximum delta is    0.001532998305950
 Root      2 not converged, maximum delta is    0.004276885608839
 Excitation Energies [eV] at current iteration:
 Root      1 :     3.419472118199573   Change is   -0.000044864623470
 Root      2 :     3.629229813119651   Change is   -0.000250746524949
 Iteration     8 Dimension    36 NMult    32 NNew      4
 CISAX will form     4 AO SS matrices at one time.
 NMat=     4 NSing=     4 JSym2X= 0.
 Root      1 not converged, maximum delta is    0.001349714984171
 Root      2 not converged, maximum delta is    0.003688838117676
 Excitation Energies [eV] at current iteration:
 Root      1 :     3.419450610452246   Change is   -0.000021507747327
 Root      2 :     3.629107572989039   Change is   -0.000122240130611
 Iteration     9 Dimension    40 NMult    36 NNew      4
 CISAX will form     4 AO SS matrices at one time.
 NMat=     4 NSing=     4 JSym2X= 0.
 Root      1 has converged.
 Root      2 not converged, maximum delta is    0.002933874715301
 Excitation Energies [eV] at current iteration:
 Root      1 :     3.419445190235996   Change is   -0.000005420216249
 Root      2 :     3.629055007891488   Change is   -0.000052565097551
 Iteration    10 Dimension    42 NMult    40 NNew      2
 CISAX will form     2 AO SS matrices at one time.
 NMat=     2 NSing=     2 JSym2X= 0.
 Root      1 has converged.
 Root      2 not converged, maximum delta is    0.001582308077661
 Excitation Energies [eV] at current iteration:
 Root      1 :     3.419445000373703   Change is   -0.000000189862293
 Root      2 :     3.629036683681416   Change is   -0.000018324210072
 Iteration    11 Dimension    44 NMult    42 NNew      2
 CISAX will form     2 AO SS matrices at one time.
 NMat=     2 NSing=     2 JSym2X= 0.
 Root      1 has converged.
 Root      2 has converged.
 Excitation Energies [eV] at current iteration:
 Root      1 :     3.419444918934741   Change is   -0.000000081438962
 Root      2 :     3.629031094175160   Change is   -0.000005589506256
 Convergence achieved on expansion vectors.
 ***********************************************************************
 Excited states from <AA,BB:AA,BB> singles matrix:
 ***********************************************************************
 
 1PDM for each excited state written to RWF  633
 Ground to excited state transition densities written to RWF  633
 Ground to excited state transition electric dipole moments (Au):
       state          X           Y           Z        Dip. S.      Osc.
         1        -0.1888      0.4073      0.0626      0.2054      0.0172
         2        -4.5815     -0.0771      1.7584     24.0883      2.1417
 Ground to excited state transition velocity dipole moments (Au):
       state          X           Y           Z        Dip. S.      Osc.
         1         0.0233     -0.0469     -0.0074      0.0028      0.0148
         2         0.5975      0.0087     -0.2338      0.4117      2.0581
 Ground to excited state transition magnetic dipole moments (Au):
       state          X           Y           Z
         1        -1.3623      0.3971     -3.3616
         2        -0.2656      0.0497     -0.6860
 Ground to excited state transition velocity quadrupole moments (Au):
       state          XX          YY          ZZ          XY          XZ          YZ
         1         2.1784     -0.0848     -0.4609      2.7782      0.2557     -1.1434
         2        -0.2875     -0.4611      0.0478     -0.4606     -0.0371     -0.0206
 <0|del|b> * <b|rxdel|0> + <0|del|b> * <b|delr+rdel|0>
 Rotatory Strengths (R) in cgs (10**-40 erg-esu-cm/Gauss)
       state          XX          YY          ZZ    R(velocity)    E-M Angle
         1        -6.5341    -36.3071   -100.5009    -47.7807       97.58
         2       712.8168   -313.5716   -387.6885      3.8522       89.74
 1/2[<0|r|b>*<b|rxdel|0> + (<0|rxdel|b>*<b|r|0>)*]
 Rotatory Strengths (R) in cgs (10**-40 erg-esu-cm/Gauss)
       state          XX          YY          ZZ     R(length)
         1      -181.9195   -114.3708    148.7135    -49.1923
         2      -860.3847      2.7116    853.0056     -1.5558
  1/2[<0|del|b>*<b|r|0> + (<0|r|b>*<b|del|0>)*] (Au)
       state          X           Y           Z        Dip. S.   Osc.(frdel)
         1        -0.0044     -0.0191     -0.0005      0.0240      0.0160
         2        -2.7373     -0.0007     -0.4112      3.1491      2.0994

 Excitation energies and oscillator strengths:
 
 Excited state symmetry could not be determined.
 Excited State   1:      Singlet-?Sym    3.4194 eV  362.59 nm  f=0.0172  <S**2>=0.000
     141 ->143        -0.35000
     141 ->144        -0.29416
     142 ->143         0.35566
     142 ->144        -0.31107
 This state for optimization and/or second-order correction.
 Total Energy, E(TD-HF/TD-KS) =  -1725.79576407    
 Copying the excited state density for this state as the 1-particle RhoCI density.
 
 Excited state symmetry could not be determined.
 Excited State   2:      Singlet-?Sym    3.6290 eV  341.65 nm  f=2.1417  <S**2>=0.000
     139 ->143         0.10099
     140 ->144        -0.12332
     141 ->143        -0.44446
     142 ->144         0.46749
 SavETr:  write IOETrn=   770 NScale= 10 NData=  16 NLR=1 NState=    2 LETran=      46.
 Leave Link  914 at Tue Sep 26 18:20:27 2017, MaxMem=  1879048192 cpu:      3194.0
 (Enter /share/apps/gaussian/g09_D01/g09/l601.exe)
 Copying SCF densities to generalized density rwf, IOpCl= 0 IROHF=0.

 **********************************************************************

            Population analysis using the SCF density.

 **********************************************************************

 Alpha  occ. eigenvalues --  -19.27799 -19.27725 -19.25824 -19.25707 -14.48214
 Alpha  occ. eigenvalues --  -14.48113 -10.39101 -10.39094 -10.37045 -10.36655
 Alpha  occ. eigenvalues --  -10.35173 -10.35097 -10.33512 -10.33505 -10.32726
 Alpha  occ. eigenvalues --  -10.32678 -10.32098 -10.32033 -10.31678 -10.31578
 Alpha  occ. eigenvalues --  -10.31154 -10.31131 -10.30989 -10.30958 -10.30837
 Alpha  occ. eigenvalues --  -10.30781 -10.30761 -10.30703 -10.30214 -10.30160
 Alpha  occ. eigenvalues --  -10.30133 -10.30025 -10.29909 -10.29874 -10.29723
 Alpha  occ. eigenvalues --  -10.29605 -10.29602 -10.29564 -10.29508 -10.29430
 Alpha  occ. eigenvalues --   -1.15841  -1.15781  -1.12282  -1.12200  -1.06314
 Alpha  occ. eigenvalues --   -1.06194  -0.96073  -0.95803  -0.95748  -0.95424
 Alpha  occ. eigenvalues --   -0.89944  -0.89808  -0.87005  -0.86589  -0.85681
 Alpha  occ. eigenvalues --   -0.85572  -0.84310  -0.83947  -0.83752  -0.83469
 Alpha  occ. eigenvalues --   -0.82662  -0.82532  -0.77948  -0.77778  -0.74284
 Alpha  occ. eigenvalues --   -0.73994  -0.71593  -0.71291  -0.70556  -0.70307
 Alpha  occ. eigenvalues --   -0.69433  -0.69083  -0.67001  -0.66905  -0.63908
 Alpha  occ. eigenvalues --   -0.63736  -0.62262  -0.62004  -0.60890  -0.60684
 Alpha  occ. eigenvalues --   -0.60401  -0.60054  -0.57623  -0.57567  -0.57172
 Alpha  occ. eigenvalues --   -0.56889  -0.56155  -0.56047  -0.55378  -0.55078
 Alpha  occ. eigenvalues --   -0.54602  -0.54017  -0.53601  -0.53392  -0.52173
 Alpha  occ. eigenvalues --   -0.52070  -0.51743  -0.51650  -0.51357  -0.51299
 Alpha  occ. eigenvalues --   -0.51082  -0.50878  -0.50206  -0.50189  -0.49728
 Alpha  occ. eigenvalues --   -0.49683  -0.48700  -0.48499  -0.47449  -0.47168
 Alpha  occ. eigenvalues --   -0.46988  -0.46899  -0.46805  -0.46578  -0.46241
 Alpha  occ. eigenvalues --   -0.46079  -0.46019  -0.45967  -0.45686  -0.45281
 Alpha  occ. eigenvalues --   -0.44632  -0.44450  -0.42541  -0.42233  -0.42118
 Alpha  occ. eigenvalues --   -0.41802  -0.41438  -0.41172  -0.39914  -0.39845
 Alpha  occ. eigenvalues --   -0.34153  -0.33947  -0.33685  -0.33638  -0.33489
 Alpha  occ. eigenvalues --   -0.33336  -0.33121  -0.33010  -0.29644  -0.29192
 Alpha  occ. eigenvalues --   -0.25617  -0.25547
 Alpha virt. eigenvalues --   -0.01280  -0.01101   0.04704   0.05255   0.06840
 Alpha virt. eigenvalues --    0.07267   0.07821   0.08532   0.11698   0.11998
 Alpha virt. eigenvalues --    0.13883   0.16194   0.16558   0.16954   0.17329
 Alpha virt. eigenvalues --    0.17679   0.17760   0.18453   0.18531   0.19086
 Alpha virt. eigenvalues --    0.19617   0.20045   0.20836   0.21506   0.22529
 Alpha virt. eigenvalues --    0.23076   0.23643   0.23875   0.24047   0.24223
 Alpha virt. eigenvalues --    0.24602   0.24834   0.24924   0.24988   0.25413
 Alpha virt. eigenvalues --    0.25445   0.25552   0.26077   0.26238   0.26505
 Alpha virt. eigenvalues --    0.26690   0.26942   0.27142   0.27451   0.27882
 Alpha virt. eigenvalues --    0.28108   0.28679   0.29274   0.29908   0.31740
 Alpha virt. eigenvalues --    0.31877   0.32279   0.32639   0.33054   0.33359
 Alpha virt. eigenvalues --    0.33532   0.33999   0.34367   0.34908   0.35402
 Alpha virt. eigenvalues --    0.37537   0.38130   0.38340   0.39274   0.40647
 Alpha virt. eigenvalues --    0.40754   0.40997   0.41301   0.41662   0.41773
 Alpha virt. eigenvalues --    0.42151   0.42498   0.43094   0.43406   0.45042
 Alpha virt. eigenvalues --    0.45231   0.48148   0.48214   0.48512   0.48924
 Alpha virt. eigenvalues --    0.51990   0.52837   0.53064   0.53415   0.55905
 Alpha virt. eigenvalues --    0.56536   0.56764   0.56990   0.57503   0.58077
 Alpha virt. eigenvalues --    0.59219   0.59355   0.59667   0.60182   0.60634
 Alpha virt. eigenvalues --    0.60695   0.60927   0.61205   0.61592   0.61836
 Alpha virt. eigenvalues --    0.62511   0.62888   0.63196   0.63507   0.63873
 Alpha virt. eigenvalues --    0.64028   0.64432   0.64682   0.65290   0.65898
 Alpha virt. eigenvalues --    0.66466   0.66544   0.66611   0.66660   0.67014
 Alpha virt. eigenvalues --    0.67335   0.67617   0.67893   0.68104   0.68320
 Alpha virt. eigenvalues --    0.68500   0.68668   0.69094   0.69321   0.69372
 Alpha virt. eigenvalues --    0.69613   0.69916   0.70055   0.70414   0.70925
 Alpha virt. eigenvalues --    0.71048   0.71187   0.71621   0.72017   0.72227
 Alpha virt. eigenvalues --    0.72491   0.72954   0.73357   0.73715   0.74369
 Alpha virt. eigenvalues --    0.75292   0.75450   0.75838   0.76109   0.76759
 Alpha virt. eigenvalues --    0.77598   0.78120   0.78577   0.79110   0.79662
 Alpha virt. eigenvalues --    0.80398   0.81371   0.81635   0.81800   0.82600
 Alpha virt. eigenvalues --    0.82967   0.83119   0.83542   0.85161   0.85709
 Alpha virt. eigenvalues --    0.86433   0.87379   0.87987   0.88627   0.88809
 Alpha virt. eigenvalues --    0.89266   0.89414   0.89928   0.90815   0.91220
 Alpha virt. eigenvalues --    0.91643   0.92294   0.92416   0.92939   0.93118
 Alpha virt. eigenvalues --    0.93470   0.93659   0.94252   0.94417   0.94708
 Alpha virt. eigenvalues --    0.95227   0.95501   0.95942   0.96882   0.97389
 Alpha virt. eigenvalues --    0.97688   0.98035   0.98055   0.98835   0.99950
 Alpha virt. eigenvalues --    1.00226   1.00703   1.01329   1.01421   1.01645
 Alpha virt. eigenvalues --    1.02170   1.02785   1.02919   1.03456   1.03801
 Alpha virt. eigenvalues --    1.04315   1.04821   1.05258   1.05560   1.06198
 Alpha virt. eigenvalues --    1.06453   1.06640   1.06840   1.07417   1.08041
 Alpha virt. eigenvalues --    1.08179   1.08619   1.09182   1.09555   1.10043
 Alpha virt. eigenvalues --    1.10550   1.10963   1.11073   1.11441   1.12385
 Alpha virt. eigenvalues --    1.13050   1.13473   1.13800   1.14941   1.15379
 Alpha virt. eigenvalues --    1.15671   1.16699   1.17281   1.18210   1.18470
 Alpha virt. eigenvalues --    1.19065   1.20142   1.21055   1.21368   1.22149
 Alpha virt. eigenvalues --    1.22958   1.24718   1.26083   1.26522   1.26700
 Alpha virt. eigenvalues --    1.28128   1.28411   1.28870   1.29464   1.29988
 Alpha virt. eigenvalues --    1.31073   1.32113   1.32307   1.32687   1.32980
 Alpha virt. eigenvalues --    1.33373   1.33913   1.34147   1.35304   1.36505
 Alpha virt. eigenvalues --    1.37570   1.37915   1.38160   1.38435   1.39081
 Alpha virt. eigenvalues --    1.39631   1.40421   1.41267   1.42776   1.43007
 Alpha virt. eigenvalues --    1.43506   1.45563   1.45654   1.46249   1.46638
 Alpha virt. eigenvalues --    1.47056   1.47383   1.48223   1.48740   1.48922
 Alpha virt. eigenvalues --    1.50039   1.50367   1.51344   1.52140   1.52466
 Alpha virt. eigenvalues --    1.53109   1.53569   1.53828   1.54019   1.54640
 Alpha virt. eigenvalues --    1.55553   1.55961   1.56453   1.56802   1.57034
 Alpha virt. eigenvalues --    1.57531   1.57715   1.58089   1.59165   1.59540
 Alpha virt. eigenvalues --    1.59807   1.60087   1.61007   1.61173   1.61447
 Alpha virt. eigenvalues --    1.65585   1.65824   1.67214   1.67901   1.70742
 Alpha virt. eigenvalues --    1.71211   1.73309   1.74405   1.79579   1.80253
 Alpha virt. eigenvalues --    1.81668   1.81713   1.82642   1.82916   1.85520
 Alpha virt. eigenvalues --    1.85594   1.85665   1.85817   1.86300   1.86534
 Alpha virt. eigenvalues --    1.87595   1.88324   1.88993   1.89132   1.89444
 Alpha virt. eigenvalues --    1.89836   1.90287   1.90473   1.92654   1.93227
 Alpha virt. eigenvalues --    1.94206   1.94487   1.95087   1.95126   1.96223
 Alpha virt. eigenvalues --    1.97196   1.99076   1.99177   1.99447   1.99835
 Alpha virt. eigenvalues --    1.99921   2.00405   2.00841   2.01417   2.02445
 Alpha virt. eigenvalues --    2.03141   2.03714   2.03979   2.04265   2.04441
 Alpha virt. eigenvalues --    2.06495   2.06752   2.07470   2.07553   2.07997
 Alpha virt. eigenvalues --    2.08062   2.09001   2.09489   2.09833   2.10408
 Alpha virt. eigenvalues --    2.11628   2.11886   2.12494   2.12850   2.15414
 Alpha virt. eigenvalues --    2.15738   2.16917   2.17032   2.17894   2.18605
 Alpha virt. eigenvalues --    2.18919   2.19382   2.19954   2.20165   2.20267
 Alpha virt. eigenvalues --    2.20890   2.22878   2.23188   2.23697   2.23957
 Alpha virt. eigenvalues --    2.24603   2.25063   2.25311   2.26711   2.27495
 Alpha virt. eigenvalues --    2.27948   2.30014   2.30523   2.31397   2.31727
 Alpha virt. eigenvalues --    2.32092   2.32317   2.32450   2.32547   2.34849
 Alpha virt. eigenvalues --    2.35082   2.36421   2.36901   2.37626   2.37971
 Alpha virt. eigenvalues --    2.39319   2.39648   2.39773   2.40023   2.40689
 Alpha virt. eigenvalues --    2.41159   2.41294   2.42101   2.42200   2.42913
 Alpha virt. eigenvalues --    2.46652   2.46763   2.47865   2.48104   2.48807
 Alpha virt. eigenvalues --    2.49133   2.50725   2.51104   2.56041   2.56316
 Alpha virt. eigenvalues --    2.58003   2.58586   2.60226   2.60886   2.62125
 Alpha virt. eigenvalues --    2.62282   2.62381   2.62755   2.64058   2.65176
 Alpha virt. eigenvalues --    2.65355   2.65466   2.67923   2.68275   2.68547
 Alpha virt. eigenvalues --    2.68882   2.69453   2.69718   2.71438   2.71838
 Alpha virt. eigenvalues --    2.72218   2.72627   2.74925   2.75046   2.77433
 Alpha virt. eigenvalues --    2.77553   2.78313   2.78537   2.80004   2.80400
 Alpha virt. eigenvalues --    2.81496   2.82168   2.82889   2.83429   2.87192
 Alpha virt. eigenvalues --    2.88152   2.91095   2.91599   2.92388   2.92869
 Alpha virt. eigenvalues --    2.95094   2.95336   2.98909   2.99436   3.00709
 Alpha virt. eigenvalues --    3.01395   3.02085   3.03410   3.05975   3.06483
 Alpha virt. eigenvalues --    3.07055   3.07459   3.13455   3.13679   3.18236
 Alpha virt. eigenvalues --    3.18591   3.24472   3.24659   3.33134   3.33227
 Alpha virt. eigenvalues --    3.38188   3.38388   3.52539   3.52731   3.54625
 Alpha virt. eigenvalues --    3.54799   4.09068   4.10447   4.13161   4.13532
 Alpha virt. eigenvalues --    4.14657   4.15939   4.19250   4.19416   4.19853
 Alpha virt. eigenvalues --    4.21947   4.22614   4.23005   4.23248   4.23555
 Alpha virt. eigenvalues --    4.24249   4.29363   4.31031   4.32446   4.33749
 Alpha virt. eigenvalues --    4.34331   4.38671   4.38865   4.40128   4.41034
 Alpha virt. eigenvalues --    4.43656   4.44593   4.46333   4.47621   4.48939
 Alpha virt. eigenvalues --    4.50220   4.54337   4.54828   4.61410   4.61856
 Alpha virt. eigenvalues --    4.78531   4.79036   4.86234   4.86438   4.88954
 Alpha virt. eigenvalues --    4.89140
          Condensed to atoms (all electrons):
 Mulliken charges:
               1
     1  C    0.379827
     2  C   -0.225290
     3  C   -0.231632
     4  N   -0.496967
     5  C   -0.198575
     6  H    0.178314
     7  C   -0.214213
     8  H    0.164578
     9  C   -0.380701
    10  C   -0.362198
    11  C    0.125203
    12  H    0.158224
    13  H    0.172850
    14  H    0.212497
    15  H    0.181954
    16  H    0.177562
    17  H    0.181460
    18  H    0.184531
    19  H    0.184971
    20  C   -0.159354
    21  C   -0.236508
    22  H    0.199947
    23  C    0.437845
    24  H    0.148051
    25  C   -0.029700
    26  O   -0.587262
    27  C    0.322285
    28  C   -0.208446
    29  H    0.468928
    30  C   -0.210742
    31  O   -0.668133
    32  C   -0.192836
    33  H    0.175035
    34  C   -0.160306
    35  H    0.184747
    36  H    0.169422
    37  H    0.175055
    38  C    0.372440
    39  C   -0.228188
    40  C   -0.213025
    41  N   -0.500955
    42  C   -0.198687
    43  H    0.162566
    44  C   -0.197009
    45  H    0.157770
    46  C   -0.361247
    47  C   -0.358876
    48  C    0.119262
    49  H    0.162870
    50  H    0.147553
    51  H    0.178941
    52  H    0.183220
    53  H    0.182751
    54  H    0.191540
    55  H    0.177787
    56  H    0.180360
    57  C   -0.150886
    58  C   -0.245535
    59  H    0.190481
    60  C    0.436674
    61  H    0.160257
    62  C   -0.025196
    63  O   -0.597943
    64  C    0.320497
    65  C   -0.200986
    66  H    0.468766
    67  C   -0.207440
    68  O   -0.675068
    69  C   -0.187251
    70  H    0.171282
    71  C   -0.156863
    72  H    0.180630
    73  H    0.165890
    74  H    0.173196
 Sum of Mulliken charges =   0.00000
 Mulliken charges with hydrogens summed into heavy atoms:
               1
     1  C    0.379827
     2  C   -0.046976
     3  C   -0.067054
     4  N   -0.496967
     5  C   -0.040352
     7  C   -0.041363
     9  C    0.191311
    10  C    0.188764
    11  C    0.125203
    20  C    0.040593
    21  C   -0.088456
    23  C    0.437845
    25  C   -0.029700
    26  O   -0.587262
    27  C    0.322285
    28  C   -0.033411
    30  C   -0.025995
    31  O   -0.199206
    32  C   -0.023414
    34  C    0.014750
    38  C    0.372440
    39  C   -0.065623
    40  C   -0.055255
    41  N   -0.500955
    42  C   -0.035816
    44  C   -0.049456
    46  C    0.183665
    47  C    0.190811
    48  C    0.119262
    57  C    0.039594
    58  C   -0.085278
    60  C    0.436674
    62  C   -0.025196
    63  O   -0.597943
    64  C    0.320497
    65  C   -0.029704
    67  C   -0.026810
    68  O   -0.206303
    69  C   -0.021361
    71  C    0.016333
 Electronic spatial extent (au):  <R**2>=          29419.2343
 Charge=              0.0000 electrons
 Dipole moment (field-independent basis, Debye):
    X=             -0.2981    Y=             -2.2449    Z=             -0.0945  Tot=              2.2666
 Quadrupole moment (field-independent basis, Debye-Ang):
   XX=           -207.4012   YY=           -228.8520   ZZ=           -229.6839
   XY=            -31.3635   XZ=              5.8940   YZ=             27.6659
 Traceless Quadrupole moment (field-independent basis, Debye-Ang):
   XX=             14.5779   YY=             -6.8730   ZZ=             -7.7049
   XY=            -31.3635   XZ=              5.8940   YZ=             27.6659
 Octapole moment (field-independent basis, Debye-Ang**2):
  XXX=             -7.8126  YYY=            -80.3479  ZZZ=             -5.0539  XYY=           -127.0727
  XXY=            -99.1200  XXZ=             -2.2599  XZZ=             -2.2644  YZZ=            -47.6059
  YYZ=            -39.8690  XYZ=              0.8497
 Hexadecapole moment (field-independent basis, Debye-Ang**3):
 XXXX=         -22672.1464 YYYY=         -10413.0520 ZZZZ=          -4265.2650 XXXY=          -2928.9424
 XXXZ=           3289.2775 YYYX=          -2873.0924 YYYZ=           -268.1664 ZZZX=           3322.9655
 ZZZY=           -259.9146 XXYY=          -5640.0783 XXZZ=          -4886.6850 YYZZ=          -2452.4875
 XXYZ=            440.2452 YYXZ=           1213.1325 ZZXY=          -1228.5131
 N-N= 4.199815126732D+03 E-N=-1.240990367960D+04  KE= 1.710070040104D+03
 Leave Link  601 at Tue Sep 26 18:20:27 2017, MaxMem=  1879048192 cpu:         0.2
 (Enter /share/apps/gaussian/g09_D01/g09/l9999.exe)
 1\1\GINC-NXN37\SP\RwB97XD TD-FC\6-31G(d)\C34H34N2O4\BTX008\26-Sep-2017
 \0\\#p wb97xd 6-31G* nosymm td=(nstates=2)\\Title\\0,1\C,0,-2.561045,2
 .954113,1.800653\C,0,-1.453614,2.123705,2.11922\C,0,-2.395118,3.884027
 ,0.746328\N,0,-3.735091,2.854836,2.478577\C,0,-0.257335,2.254822,1.452
 784\H,0,-1.535511,1.379261,2.89957\C,0,-1.189555,3.988311,0.088085\H,0
 ,-3.219319,4.514257,0.441933\C,0,-3.874215,1.876051,3.53812\C,0,-4.839
 077,3.744247,2.165869\C,0,-0.079646,3.191747,0.417146\H,0,0.565679,1.6
 10013,1.746085\H,0,-1.090979,4.710509,-0.716946\H,0,-3.760779,0.853886
 ,3.155524\H,0,-4.862027,1.966878,3.986117\H,0,-3.134539,2.036154,4.330
 126\H,0,-4.544216,4.794091,2.272894\H,0,-5.657968,3.554154,2.859682\H,
 0,-5.212008,3.588295,1.147805\C,0,1.142009,3.334818,-0.334298\C,0,2.30
 4719,2.65957,-0.162136\H,0,1.119006,4.060213,-1.147889\C,0,3.424995,2.
 888199,-1.059609\H,0,2.407243,1.928444,0.629659\C,0,4.730578,2.228227,
 -0.807332\O,0,3.297663,3.635176,-2.057585\C,0,5.784111,2.39456,-1.7394
 95\C,0,4.979595,1.442845,0.332629\H,0,4.72778,3.522407,-2.78625\C,0,7.
 02529,1.784468,-1.519498\O,0,5.638602,3.129431,-2.853437\C,0,6.204812,
 0.838836,0.543916\H,0,4.20399,1.302276,1.074422\C,0,7.231178,1.015415,
 -0.388505\H,0,7.813944,1.955377,-2.243553\H,0,6.367472,0.249632,1.4376
 1\H,0,8.201859,0.560885,-0.21421\C,0,2.581379,-2.105893,-1.790351\C,0,
 1.469589,-2.925706,-2.114778\C,0,2.418297,-1.172891,-0.739484\N,0,3.76
 0702,-2.22074,-2.463536\C,0,0.275622,-2.797215,-1.441929\H,0,1.543808,
 -3.659152,-2.906877\C,0,1.213161,-1.068453,-0.076918\H,0,3.239008,-0.5
 32688,-0.440757\C,0,3.889903,-3.191034,-3.531233\C,0,4.884294,-1.37098
 6,-2.116734\C,0,0.103869,-1.867639,-0.400177\H,0,-0.550023,-3.437858,-
 1.738482\H,0,1.11437,-0.338494,0.721184\H,0,3.768271,-4.218275,-3.1642
 67\H,0,4.878499,-3.104711,-3.978679\H,0,3.15148,-3.019964,-4.322237\H,
 0,4.641213,-0.309097,-2.246088\H,0,5.725497,-1.605799,-2.769569\H,0,5.
 206196,-1.527935,-1.081389\C,0,-1.117404,-1.732539,0.361203\C,0,-2.276
 353,-2.409923,0.1825\H,0,-1.091198,-1.015275,1.182031\C,0,-3.398076,-2
 .21331,1.090916\H,0,-2.379263,-3.124101,-0.624627\C,0,-4.70039,-2.8716
 87,0.825503\O,0,-3.265917,-1.494962,2.108429\C,0,-5.76572,-2.700323,1.
 744545\C,0,-4.941727,-3.655942,-0.318788\H,0,-4.711652,-1.603647,2.830
 03\C,0,-7.013689,-3.286127,1.498915\O,0,-5.627792,-1.982401,2.870442\C
 ,0,-6.169035,-4.248695,-0.546866\H,0,-4.157788,-3.806279,-1.050026\C,0
 ,-7.211084,-4.051961,0.365389\H,0,-7.815385,-3.104576,2.205589\H,0,-6.
 322494,-4.844558,-1.438454\H,0,-8.188118,-4.487504,0.178763\\Version=E
 S64L-G09RevD.01\HF=-1725.9214264\RMSD=3.687e-09\PG=C01 [X(C34H34N2O4)]
 \\@


 MUD THROWN IS GROUND LOST -- FROM A TEA BAG
 Job cpu time:       0 days  1 hours  9 minutes 33.1 seconds.
 File lengths (MBytes):  RWF=    584 Int=      0 D2E=      0 Chk=     52 Scr=      1
 Normal termination of Gaussian 09 at Tue Sep 26 18:20:28 2017.
