 Entering Gaussian System, Link 0=g09
 Input=2hc_1_rel-mega_dimer_0_mon-0.com
 Output=2hc_1_rel-mega_dimer_0_mon-0.com.log
 Initial command:
 /share/apps/gaussian/g09_D01/g09/l1.exe "/tmp/207327.1.all.q/Gau-5702.inp" -scrdir="/tmp/207327.1.all.q/"
 Entering Link 1 = /share/apps/gaussian/g09_D01/g09/l1.exe PID=      5704.
  
 Copyright (c) 1988,1990,1992,1993,1995,1998,2003,2009,2013,
            Gaussian, Inc.  All Rights Reserved.
  
 This is part of the Gaussian(R) 09 program.  It is based on
 the Gaussian(R) 03 system (copyright 2003, Gaussian, Inc.),
 the Gaussian(R) 98 system (copyright 1998, Gaussian, Inc.),
 the Gaussian(R) 94 system (copyright 1995, Gaussian, Inc.),
 the Gaussian 92(TM) system (copyright 1992, Gaussian, Inc.),
 the Gaussian 90(TM) system (copyright 1990, Gaussian, Inc.),
 the Gaussian 88(TM) system (copyright 1988, Gaussian, Inc.),
 the Gaussian 86(TM) system (copyright 1986, Carnegie Mellon
 University), and the Gaussian 82(TM) system (copyright 1983,
 Carnegie Mellon University). Gaussian is a federally registered
 trademark of Gaussian, Inc.
  
 This software contains proprietary and confidential information,
 including trade secrets, belonging to Gaussian, Inc.
  
 This software is provided under written license and may be
 used, copied, transmitted, or stored only in accord with that
 written license.
  
 The following legend is applicable only to US Government
 contracts under FAR:
  
                    RESTRICTED RIGHTS LEGEND
  
 Use, reproduction and disclosure by the US Government is
 subject to restrictions as set forth in subparagraphs (a)
 and (c) of the Commercial Computer Software - Restricted
 Rights clause in FAR 52.227-19.
  
 Gaussian, Inc.
 340 Quinnipiac St., Bldg. 40, Wallingford CT 06492
  
  
 ---------------------------------------------------------------
 Warning -- This program may not be used in any manner that
 competes with the business of Gaussian, Inc. or will provide
 assistance to any competitor of Gaussian, Inc.  The licensee
 of this program is prohibited from giving any competitor of
 Gaussian, Inc. access to this program.  By using this program,
 the user acknowledges that Gaussian, Inc. is engaged in the
 business of creating and licensing software in the field of
 computational chemistry and represents and warrants to the
 licensee that it is not a competitor of Gaussian, Inc. and that
 it will not use this program in any manner prohibited above.
 ---------------------------------------------------------------
  

 Cite this work as:
 Gaussian 09, Revision D.01,
 M. J. Frisch, G. W. Trucks, H. B. Schlegel, G. E. Scuseria, 
 M. A. Robb, J. R. Cheeseman, G. Scalmani, V. Barone, B. Mennucci, 
 G. A. Petersson, H. Nakatsuji, M. Caricato, X. Li, H. P. Hratchian, 
 A. F. Izmaylov, J. Bloino, G. Zheng, J. L. Sonnenberg, M. Hada, 
 M. Ehara, K. Toyota, R. Fukuda, J. Hasegawa, M. Ishida, T. Nakajima, 
 Y. Honda, O. Kitao, H. Nakai, T. Vreven, J. A. Montgomery, Jr., 
 J. E. Peralta, F. Ogliaro, M. Bearpark, J. J. Heyd, E. Brothers, 
 K. N. Kudin, V. N. Staroverov, T. Keith, R. Kobayashi, J. Normand, 
 K. Raghavachari, A. Rendell, J. C. Burant, S. S. Iyengar, J. Tomasi, 
 M. Cossi, N. Rega, J. M. Millam, M. Klene, J. E. Knox, J. B. Cross, 
 V. Bakken, C. Adamo, J. Jaramillo, R. Gomperts, R. E. Stratmann, 
 O. Yazyev, A. J. Austin, R. Cammi, C. Pomelli, J. W. Ochterski, 
 R. L. Martin, K. Morokuma, V. G. Zakrzewski, G. A. Voth, 
 P. Salvador, J. J. Dannenberg, S. Dapprich, A. D. Daniels, 
 O. Farkas, J. B. Foresman, J. V. Ortiz, J. Cioslowski, 
 and D. J. Fox, Gaussian, Inc., Wallingford CT, 2013.
 
 ******************************************
 Gaussian 09:  ES64L-G09RevD.01 24-Apr-2013
                29-Jan-2018 
 ******************************************
 %chk=2hc_1_rel-mega_dimer_0_mon-0.chk
 %nproc=2
 Will use up to    2 processors via shared memory.
 %mem=14GB
 ------------------------------------------
 #p wb97xd 6-311++G** td=(nstates=4) nosymm
 ------------------------------------------
 1/38=1/1;
 2/12=2,15=1,17=6,18=5,40=1/2;
 3/5=4,6=6,7=1111,11=9,16=1,25=1,30=1,74=-58/1,2,8,3;
 4//1;
 5/5=2,38=5/2;
 8/6=1,10=2,108=4/1;
 9/41=4,42=1,70=2/14;
 6/7=2,8=2,9=2,10=2/1;
 99/5=1,9=1/99;
 Leave Link    1 at Mon Jan 29 13:06:00 2018, MaxMem=  1879048192 cpu:         0.6
 (Enter /share/apps/gaussian/g09_D01/g09/l101.exe)
 -----
 Title
 -----
 Symbolic Z-matrix:
 Charge =  0 Multiplicity = 1
 C                    -0.0456   -3.21264  -0.67304 
 C                    -1.16356  -4.03755  -0.99906 
 H                    -0.12129  -2.47529   0.12188 
 C                     1.14661  -3.33552  -1.34859 
 C                    -0.99793  -4.97495  -2.05567 
 N                    -2.33745  -3.93316  -0.32458 
 C                     1.3206   -4.2705   -2.39922 
 H                     1.97111  -2.6822   -1.06047 
 C                     0.20216  -5.07477  -2.7253 
 H                    -1.8261   -5.61189  -2.35623 
 C                    -3.45104  -4.81759  -0.63829 
 C                    -2.48278  -2.95113   0.73861 
 C                     2.5213   -4.39693  -3.16445 
 H                     0.29953  -5.79229  -3.54133 
 H                    -3.15029  -5.87257  -0.54965 
 H                    -4.26893  -4.62644   0.06324 
 H                    -3.81896  -4.64893  -1.66218 
 H                    -2.29016  -1.93341   0.36524 
 H                    -3.50245  -2.99128   1.13259 
 H                    -1.7832   -3.15238   1.56346 
 C                     3.70418  -3.73004  -2.97634 
 H                     2.47843  -5.09195  -4.01001 
 C                     4.82425  -3.90407  -3.86262 
 H                     3.81017  -3.04269  -2.1395 
 C                     6.11603  -3.24131  -3.59483 
 O                     4.72679  -4.64403  -4.90867 
 C                     7.19644  -3.4445   -4.50546 
 C                     6.35306  -2.41888  -2.473 
 H                     6.04768  -4.52891  -5.53026 
 C                     8.44931  -2.86207  -4.2561 
 O                     7.03904  -4.19827  -5.6112 
 C                     7.5888   -1.83401  -2.24194 
 H                     5.55265  -2.22183  -1.76161 
 C                     8.64194  -2.06555  -3.13706 
 H                     9.25731  -3.06914  -4.95777 
 H                     7.73762  -1.19613  -1.37118 
 H                     9.61957  -1.61959  -2.9473 
 
 NAtoms=     37 NQM=       37 NQMF=       0 NMMI=      0 NMMIF=      0
                NMic=       0 NMicF=      0.
                    Isotopes and Nuclear Properties:
 (Nuclear quadrupole moments (NQMom) in fm**2, nuclear magnetic moments (NMagM)
  in nuclear magnetons)

  Atom         1           2           3           4           5           6           7           8           9          10
 IAtWgt=          12          12           1          12          12          14          12           1          12           1
 AtmWgt=  12.0000000  12.0000000   1.0078250  12.0000000  12.0000000  14.0030740  12.0000000   1.0078250  12.0000000   1.0078250
 NucSpn=           0           0           1           0           0           2           0           1           0           1
 AtZEff=   0.0000000   0.0000000   0.0000000   0.0000000   0.0000000   0.0000000   0.0000000   0.0000000   0.0000000   0.0000000
 NQMom=    0.0000000   0.0000000   0.0000000   0.0000000   0.0000000   2.0440000   0.0000000   0.0000000   0.0000000   0.0000000
 NMagM=    0.0000000   0.0000000   2.7928460   0.0000000   0.0000000   0.4037610   0.0000000   2.7928460   0.0000000   2.7928460
 AtZNuc=   6.0000000   6.0000000   1.0000000   6.0000000   6.0000000   7.0000000   6.0000000   1.0000000   6.0000000   1.0000000

  Atom        11          12          13          14          15          16          17          18          19          20
 IAtWgt=          12          12          12           1           1           1           1           1           1           1
 AtmWgt=  12.0000000  12.0000000  12.0000000   1.0078250   1.0078250   1.0078250   1.0078250   1.0078250   1.0078250   1.0078250
 NucSpn=           0           0           0           1           1           1           1           1           1           1
 AtZEff=   0.0000000   0.0000000   0.0000000   0.0000000   0.0000000   0.0000000   0.0000000   0.0000000   0.0000000   0.0000000
 NQMom=    0.0000000   0.0000000   0.0000000   0.0000000   0.0000000   0.0000000   0.0000000   0.0000000   0.0000000   0.0000000
 NMagM=    0.0000000   0.0000000   0.0000000   2.7928460   2.7928460   2.7928460   2.7928460   2.7928460   2.7928460   2.7928460
 AtZNuc=   6.0000000   6.0000000   6.0000000   1.0000000   1.0000000   1.0000000   1.0000000   1.0000000   1.0000000   1.0000000

  Atom        21          22          23          24          25          26          27          28          29          30
 IAtWgt=          12           1          12           1          12          16          12          12           1          12
 AtmWgt=  12.0000000   1.0078250  12.0000000   1.0078250  12.0000000  15.9949146  12.0000000  12.0000000   1.0078250  12.0000000
 NucSpn=           0           1           0           1           0           0           0           0           1           0
 AtZEff=   0.0000000   0.0000000   0.0000000   0.0000000   0.0000000   0.0000000   0.0000000   0.0000000   0.0000000   0.0000000
 NQMom=    0.0000000   0.0000000   0.0000000   0.0000000   0.0000000   0.0000000   0.0000000   0.0000000   0.0000000   0.0000000
 NMagM=    0.0000000   2.7928460   0.0000000   2.7928460   0.0000000   0.0000000   0.0000000   0.0000000   2.7928460   0.0000000
 AtZNuc=   6.0000000   1.0000000   6.0000000   1.0000000   6.0000000   8.0000000   6.0000000   6.0000000   1.0000000   6.0000000

  Atom        31          32          33          34          35          36          37
 IAtWgt=          16          12           1          12           1           1           1
 AtmWgt=  15.9949146  12.0000000   1.0078250  12.0000000   1.0078250   1.0078250   1.0078250
 NucSpn=           0           0           1           0           1           1           1
 AtZEff=   0.0000000   0.0000000   0.0000000   0.0000000   0.0000000   0.0000000   0.0000000
 NQMom=    0.0000000   0.0000000   0.0000000   0.0000000   0.0000000   0.0000000   0.0000000
 NMagM=    0.0000000   0.0000000   2.7928460   0.0000000   2.7928460   2.7928460   2.7928460
 AtZNuc=   8.0000000   6.0000000   1.0000000   6.0000000   1.0000000   1.0000000   1.0000000
 Leave Link  101 at Mon Jan 29 13:06:00 2018, MaxMem=  1879048192 cpu:         0.1
 (Enter /share/apps/gaussian/g09_D01/g09/l202.exe)
                          Input orientation:                          
 ---------------------------------------------------------------------
 Center     Atomic      Atomic             Coordinates (Angstroms)
 Number     Number       Type             X           Y           Z
 ---------------------------------------------------------------------
      1          6           0       -0.045604   -3.212643   -0.673042
      2          6           0       -1.163557   -4.037551   -0.999057
      3          1           0       -0.121291   -2.475288    0.121883
      4          6           0        1.146608   -3.335524   -1.348586
      5          6           0       -0.997931   -4.974953   -2.055672
      6          7           0       -2.337452   -3.933160   -0.324579
      7          6           0        1.320601   -4.270503   -2.399224
      8          1           0        1.971105   -2.682196   -1.060472
      9          6           0        0.202155   -5.074774   -2.725295
     10          1           0       -1.826104   -5.611893   -2.356233
     11          6           0       -3.451039   -4.817588   -0.638286
     12          6           0       -2.482782   -2.951131    0.738607
     13          6           0        2.521300   -4.396929   -3.164451
     14          1           0        0.299534   -5.792287   -3.541330
     15          1           0       -3.150286   -5.872565   -0.549647
     16          1           0       -4.268925   -4.626441    0.063239
     17          1           0       -3.818958   -4.648925   -1.662177
     18          1           0       -2.290162   -1.933406    0.365237
     19          1           0       -3.502453   -2.991283    1.132588
     20          1           0       -1.783201   -3.152381    1.563457
     21          6           0        3.704177   -3.730044   -2.976341
     22          1           0        2.478430   -5.091951   -4.010014
     23          6           0        4.824246   -3.904072   -3.862622
     24          1           0        3.810173   -3.042685   -2.139497
     25          6           0        6.116034   -3.241308   -3.594826
     26          8           0        4.726790   -4.644034   -4.908669
     27          6           0        7.196441   -3.444502   -4.505463
     28          6           0        6.353060   -2.418884   -2.472996
     29          1           0        6.047681   -4.528914   -5.530262
     30          6           0        8.449310   -2.862065   -4.256098
     31          8           0        7.039043   -4.198267   -5.611204
     32          6           0        7.588797   -1.834009   -2.241935
     33          1           0        5.552651   -2.221827   -1.761605
     34          6           0        8.641937   -2.065551   -3.137064
     35          1           0        9.257308   -3.069135   -4.957770
     36          1           0        7.737617   -1.196134   -1.371176
     37          1           0        9.619574   -1.619592   -2.947297
 ---------------------------------------------------------------------
                    Distance matrix (angstroms):
                    1          2          3          4          5
     1  C    0.000000
     2  C    1.427087   0.000000
     3  H    1.086889   2.187119   0.000000
     4  C    1.375801   2.439646   2.123641   0.000000
     5  C    2.433994   1.422178   3.429077   2.790474   0.000000
     6  N    2.427579   1.357883   2.689998   3.680276   2.424115
     7  C    2.442394   2.861079   3.414356   1.417145   2.447421
     8  H    2.120988   3.415679   2.412239   1.090707   3.881022
     9  C    2.782204   2.433290   3.868897   2.410873   1.377884
    10  H    3.429244   2.181616   4.345772   3.877399   1.087152
    11  C    3.764843   2.443601   4.141431   4.882561   2.837514
    12  C    2.828600   2.437240   2.486647   4.204355   3.756146
    13  C    3.768109   4.289086   4.634219   2.512713   3.734768
    14  H    3.873081   3.418024   4.959708   3.400198   2.135095
    15  H    4.090166   2.741594   4.600788   5.053531   2.776049
    16  H    4.514131   3.334453   4.672662   5.743493   3.912882
    17  H    4.156861   2.804400   4.645461   5.145892   2.866937
    18  H    2.784333   2.749175   2.248746   4.088339   4.096544
    19  H    3.906290   3.333020   3.566515   5.280956   4.513599
    20  H    2.832808   2.781000   2.301855   4.134890   4.127531
    21  C    4.430998   5.262988   5.080119   3.057187   4.950480
    22  H    4.586712   4.841662   5.538777   3.455718   3.989765
    23  C    5.862332   6.638645   6.509688   4.490951   6.189475
    24  H    4.128728   5.198880   4.570797   2.793899   5.182524
    25  C    6.819342   7.769457   7.301023   5.454325   7.482180
    26  O    6.539508   7.095708   7.315313   5.215754   6.404805
    27  C    8.196855   9.084941   8.712113   6.824824   8.688584
    28  C    6.694235   7.828928   6.975228   5.404782   7.793890
    29  H    7.902739   8.530839   8.615123   6.552184   7.868442
    30  C    9.226308  10.217499   9.631797   7.874468   9.927564
    31  O    8.691900   9.411715   9.333131   7.323594   8.822585
    32  C    7.914931   9.110655   8.089767   6.674910   9.145060
    33  H    5.788536   6.998984   5.983760   4.563345   7.111702
    34  C    9.102779  10.227784   9.358567   7.809702  10.127245
    35  H   10.243225  11.189444  10.682399   8.881477  10.827014
    36  H    8.070454   9.351097   8.101105   6.929567   9.542421
    37  H   10.056128  11.221323  10.248733   8.791556  11.170714
                    6          7          8          9         10
     6  N    0.000000
     7  C    4.218922   0.000000
     8  H    4.546440   2.176725   0.000000
     9  C    3.676455   1.415661   3.409582   0.000000
    10  H    2.684630   3.420954   4.967989   2.130385   0.000000
    11  C    1.456263   5.115540   5.842755   4.215160   2.494529
    12  C    1.454602   5.104160   4.811042   4.870048   4.133874
    13  C    5.646895   1.429417   2.769432   2.455762   4.585769
    14  H    4.556044   2.159354   4.315260   1.090972   2.440355
    15  H    2.114863   5.096702   6.055414   4.075387   2.255030
    16  H    2.088451   6.118269   6.631801   5.288429   3.576637
    17  H    2.120459   5.205911   6.144502   4.181019   2.319588
    18  H    2.115916   5.112913   4.555407   5.062729   4.599241
    19  H    2.089903   6.113260   5.904649   5.740062   4.674357
    20  H    2.116953   5.156222   4.604443   5.102022   4.627635
    21  C    6.601089   2.511293   2.787845   3.759718   5.874513
    22  H    6.173973   2.147089   3.842408   2.613853   4.640511
    23  C    7.988023   3.814621   4.181559   4.901814   7.029439
    24  H    6.471489   2.788004   2.162503   4.182145   6.198018
    25  C    9.090358   5.048256   4.890398   6.252331   8.380414
    26  O    8.451197   4.247230   5.123595   5.042319   7.098739
    27  C   10.421789   6.296349   6.305015   7.399110   9.524867
    28  C    9.079302   5.362796   4.611517   6.704554   8.781097
    29  H    9.887594   5.675867   6.325177   6.506610   8.558259
    30  C   11.530755   7.500011   7.225754   8.674964  10.805331
    31  O   10.767420   6.559162   6.977939   7.472601   9.549032
    32  C   10.325362   6.726925   5.802908   8.080760  10.145237
    33  H    8.200453   4.744879   3.678451   6.139692   8.141999
    34  C   11.486732   7.681678   7.013735   8.969665  11.079987
    35  H   12.516048   8.425008   8.272086   9.539514  11.665146
    36  H   10.492554   7.189348   5.963018   8.582580  10.579888
    37  H   12.457998   8.729299   7.949108  10.033711  12.136366
                   11         12         13         14         15
    11  C    0.000000
    12  C    2.513368   0.000000
    13  C    6.498253   6.508842   0.000000
    14  H    4.841952   5.842201   2.650529   0.000000
    15  H    1.100584   3.261892   6.417288   4.567042   0.000000
    16  H    1.094355   2.540294   7.521823   5.934891   1.783201
    17  H    1.100983   3.229804   6.520675   4.669097   1.783855
    18  H    3.266986   1.101032   6.455835   6.071141   4.134465
    19  H    2.544411   1.093875   7.531665   6.644264   3.354955
    20  H    3.225255   1.100133   6.513888   6.112752   3.705878
    21  C    7.605680   7.258513   1.370883   4.020405   7.580429
    22  H    6.826597   7.193479   1.095386   2.336177   6.653265
    23  C    8.928113   8.687466   2.456402   4.913411   8.856858
    24  H    7.624245   6.920488   2.132065   4.674402   7.680093
    25  C   10.136798   9.633404   3.800368   6.351537  10.102540
    26  O    9.227306   9.313194   2.822684   4.773751   9.086181
    27  C   11.410927  11.019575   4.956044   7.349080  11.340138
    28  C   10.258669   9.416463   4.367283   7.011873  10.292753
    29  H   10.688332  10.703126   4.248511   6.212339  10.545830
    30  C   12.590907  12.019386   6.220032   8.689991  12.543983
    31  O   11.625631  11.512628   5.141602   7.228157  11.499785
    32  C   11.547788  10.562589   5.753184   8.395817  11.597486
    33  H    9.437492   8.446960   3.985992   6.596275   9.515138
    34  C   12.651390  11.813740   6.549677   9.145911  12.658776
    35  H   13.535772  13.049611   7.095973   9.469085  13.462509
    36  H   11.782957  10.582427   6.377373   9.008844  11.878146
    37  H   13.652825  12.721081   7.625369  10.228754  13.671351
                   16         17         18         19         20
    16  H    0.000000
    17  H    1.783266   0.000000
    18  H    3.355465   3.717750   0.000000
    19  H    2.098744   3.264761   1.782577   0.000000
    20  H    3.256122   4.097397   1.782874   1.779727   0.000000
    21  C    8.579798   7.692134   7.094093   8.328540   7.145263
    22  H    7.895245   6.735407   7.201298   8.162728   7.279218
    23  C    9.930758   8.949958   8.507239   9.752908   8.582874
    24  H    8.522450   7.810985   6.687173   8.011472   6.708929
    25  C   11.097180  10.218639   9.383860  10.720366   9.434707
    26  O   10.278281   9.141638   9.186904  10.341606   9.300184
    27  C   12.398574  11.440014  10.770458  12.102039  10.842098
    28  C   11.141470  10.445117   9.110244  10.509948   9.112064
    29  H   11.735805  10.598446  10.536280  11.745763  10.655440
    30  C   13.547073  12.666163  11.728402  13.111036  11.775219
    31  O   12.659099  11.562616  11.308471  12.572139  11.419353
    32  C   12.398269  11.764215  10.217684  11.650859  10.200660
    33  H   10.274998   9.681309   8.131197   9.537469   8.107817
    34  C   13.545865  12.811051  11.480173  12.906321  11.487367
    35  H   14.511882  13.577386  12.765906  14.138954  12.822877
    36  H   12.569073  12.064861  10.203678  11.654637  10.153076
    37  H   14.525663  13.835553  12.365807  13.809945  12.357978
                   21         22         23         24         25
    21  C    0.000000
    22  H    2.103741   0.000000
    23  C    1.438866   2.633559   0.000000
    24  H    1.088120   3.077639   2.177037   0.000000
    25  C    2.537408   4.102368   1.476376   2.733940   0.000000
    26  O    2.369601   2.462384   1.285012   3.327585   2.371460
    27  C    3.823043   5.021871   2.500352   4.150429   1.427525
    28  C    2.998179   4.951815   2.544428   2.639436   1.411051
    29  H    3.557066   3.920168   2.160612   4.325807   2.325621
    30  C    4.990737   6.378429   3.792320   5.102374   2.454645
    31  O    4.275870   4.915452   2.837149   4.879930   2.415263
    32  C    4.384584   6.313172   3.815040   3.968550   2.445370
    33  H    2.677155   4.769045   2.788332   1.962865   2.171967
    34  C    5.213237   6.921702   4.298995   5.029500   2.823497
    35  H    5.932969   7.137451   4.642037   6.133078   3.428536
    36  H    5.026519   7.056905   4.693396   4.407367   3.428832
    37  H    6.280667   8.011403   5.389976   6.035468   3.914594
                   26         27         28         29         30
    26  O    0.000000
    27  C    2.775001   0.000000
    28  C    3.678118   2.427778   0.000000
    29  H    1.464371   1.883033   3.727245   0.000000
    30  C    4.178327   1.403957   2.787495   3.188997   0.000000
    31  O    2.457392   1.347442   3.672210   1.048178   2.368671
    32  C    4.816513   2.805564   1.386547   4.522239   2.419553
    33  H    4.056248   3.424286   1.088836   4.446401   3.875956
    34  C    5.011540   2.421462   2.409313   4.304151   1.387003
    35  H    4.796698   2.143048   3.877059   3.572171   1.089992
    36  H    5.785063   3.895098   2.150842   5.591181   3.406554
    37  H    6.077299   3.410242   3.396166   5.281504   2.150864
                   31         32         33         34         35
    31  O    0.000000
    32  C    4.152580   0.000000
    33  H    4.575488   2.127677   0.000000
    34  C    3.638560   1.401418   3.385262   0.000000
    35  H    2.573444   3.418366   4.965671   2.168140   0.000000
    36  H    5.242008   1.089611   2.445109   2.166112   4.322181
    37  H    4.517201   2.160455   4.278833   1.091176   2.504878
                   36         37
    36  H    0.000000
    37  H    2.491031   0.000000
 Symmetry turned off by external request.
 Stoichiometry    C17H17NO2
 Framework group  C1[X(C17H17NO2)]
 Deg. of freedom   105
 Full point group                 C1      NOp   1
 Rotational constants (GHZ):      1.0904249      0.1072611      0.0979095
 Leave Link  202 at Mon Jan 29 13:06:00 2018, MaxMem=  1879048192 cpu:         0.0
 (Enter /share/apps/gaussian/g09_D01/g09/l301.exe)
 Standard basis: 6-311++G(d,p) (5D, 7F)
 Ernie: Thresh=  0.10000D-02 Tol=  0.10000D-05 Strict=F.
   559 basis functions,   873 primitive gaussians,   579 cartesian basis functions
    71 alpha electrons       71 beta electrons
       nuclear repulsion energy      1358.4109231705 Hartrees.
 IExCor= 4639 DFT=T Ex+Corr=wB97XD ExCW=0 ScaHFX=  1.000000
 ScaDFX=  1.000000  1.000000  1.000000  1.000000 ScalE2=  1.000000  1.000000
 IRadAn=      0 IRanWt=     -1 IRanGd=            0 ICorTp=0 IEmpDi=121
  HFx wShort=  0.000000 wLong=  0.200000 cFull=  0.222036 cShort=  0.000000 cLong=  0.777964
  DFx wShort=  0.000000 wLong=  0.200000 cFull=  0.000000 cShort=  0.000000 cLong=  1.000000
 NAtoms=   37 NActive=   37 NUniq=   37 SFac= 1.00D+00 NAtFMM=   60 NAOKFM=F Big=F
 Integral buffers will be    131072 words long.
 Raffenetti 1 integral format.
 Two-electron integral symmetry is turned off.
 R6Disp:  Grimme-D2 Dispersion energy=       -0.0228555472 Hartrees.
 Nuclear repulsion after empirical dispersion term =     1358.3880676233 Hartrees.
 Leave Link  301 at Mon Jan 29 13:06:00 2018, MaxMem=  1879048192 cpu:         0.1
 (Enter /share/apps/gaussian/g09_D01/g09/l302.exe)
 NPDir=0 NMtPBC=     1 NCelOv=     1 NCel=       1 NClECP=     1 NCelD=      1
         NCelK=      1 NCelE2=     1 NClLst=     1 CellRange=     0.0.
 One-electron integrals computed using PRISM.
 NBasis=   559 RedAO= T EigKep=  1.16D-06  NBF=   559
 NBsUse=   553 1.00D-06 EigRej=  5.34D-07 NBFU=   553
 Precomputing XC quadrature grid using
 IXCGrd= 4 IRadAn=           0 IRanWt=          -1 IRanGd=           0 AccXCQ= 0.00D+00.
 Generated NRdTot=       0 NPtTot=           0 NUsed=           0 NTot=          32
 NSgBfM=   560   560   562   565   565 MxSgAt=    37 MxSgA2=    37.
 Leave Link  302 at Mon Jan 29 13:06:01 2018, MaxMem=  1879048192 cpu:         1.8
 (Enter /share/apps/gaussian/g09_D01/g09/l308.exe)
 Leave Link  308 at Mon Jan 29 13:06:01 2018, MaxMem=  1879048192 cpu:         0.2
 (Enter /share/apps/gaussian/g09_D01/g09/l303.exe)
 DipDrv:  MaxL=1.
 Leave Link  303 at Mon Jan 29 13:06:01 2018, MaxMem=  1879048192 cpu:         0.2
 (Enter /share/apps/gaussian/g09_D01/g09/l401.exe)
 ExpMin= 3.60D-02 ExpMax= 8.59D+03 ExpMxC= 1.30D+03 IAcc=3 IRadAn=         5 AccDes= 0.00D+00
 Harris functional with IExCor= 4639 and IRadAn=       5 diagonalized for initial guess.
 HarFok:  IExCor= 4639 AccDes= 0.00D+00 IRadAn=         5 IDoV= 1 UseB2=F ITyADJ=14
 ICtDFT=  3500011 ScaDFX=  1.000000  1.000000  1.000000  1.000000
 FoFCou: FMM=F IPFlag=           0 FMFlag=      100000 FMFlg1=           0
         NFxFlg=           0 DoJE=T BraDBF=F KetDBF=T FulRan=T
         wScrn=  0.000000 ICntrl=     500 IOpCl=  0 I1Cent=   200000004 NGrid=           0
         NMat0=    1 NMatS0=      1 NMatT0=    0 NMatD0=    1 NMtDS0=    0 NMtDT0=    0
 Symmetry not used in FoFCou.
 Harris En= -825.474436513971    
 JPrj=0 DoOrth=F DoCkMO=F.
 Leave Link  401 at Mon Jan 29 13:06:21 2018, MaxMem=  1879048192 cpu:        38.5
 (Enter /share/apps/gaussian/g09_D01/g09/l502.exe)
 Closed shell SCF:
 Using DIIS extrapolation, IDIIS=  1040.
 Two-electron integral symmetry not used.
 IVT=     1031295 IEndB=     1031295 NGot=  1879048192 MDV=  1878369358
 LenX=  1878369358 LenY=  1878033538
 Requested convergence on RMS density matrix=1.00D-08 within 128 cycles.
 Requested convergence on MAX density matrix=1.00D-06.
 Requested convergence on             energy=1.00D-06.
 No special actions if energy rises.
 Fock matrices will be formed incrementally for  20 cycles.

 Cycle   1  Pass 1  IDiag  1:
 FoFJK:  IHMeth= 1 ICntrl=       0 DoSepK=T KAlg= 0 I1Cent=   0 FoldK=F
 IRaf=         1 NMat=   1 IRICut=       1 DoRegI=T DoRafI=F ISym2E= 0.
 FoFCou: FMM=F IPFlag=           0 FMFlag=      100000 FMFlg1=           0
         NFxFlg=           0 DoJE=T BraDBF=F KetDBF=F FulRan=T
         wScrn=  0.000000 ICntrl=     500 IOpCl=  0 I1Cent=           0 NGrid=           0
         NMat0=    1 NMatS0=      1 NMatT0=    0 NMatD0=    1 NMtDS0=    0 NMtDT0=    0
 Symmetry not used in FoFCou.
 E= -862.876316787422    
 DIIS: error= 5.79D-02 at cycle   1 NSaved=   1.
 NSaved= 1 IEnMin= 1 EnMin= -862.876316787422     IErMin= 1 ErrMin= 5.79D-02
 ErrMax= 5.79D-02  0.00D+00 EMaxC= 1.00D-01 BMatC= 1.87D+00 BMatP= 1.87D+00
 IDIUse=3 WtCom= 4.21D-01 WtEn= 5.79D-01
 Coeff-Com:  0.100D+01
 Coeff-En:   0.100D+01
 Coeff:      0.100D+01
 Gap=     0.280 Goal=   None    Shift=    0.000
 GapD=    0.280 DampG=1.000 DampE=0.500 DampFc=0.5000 IDamp=-1.
 Damping current iteration by 5.00D-01
 RMSDP=2.62D-02 MaxDP=3.00D+00              OVMax= 1.99D-01

 Cycle   2  Pass 1  IDiag  1:
 RMSU=  5.50D-03    CP:  8.54D-01
 E= -863.003517752177     Delta-E=       -0.127200964755 Rises=F Damp=T
 DIIS: error= 2.68D-02 at cycle   2 NSaved=   2.
 NSaved= 2 IEnMin= 2 EnMin= -863.003517752177     IErMin= 2 ErrMin= 2.68D-02
 ErrMax= 2.68D-02  0.00D+00 EMaxC= 1.00D-01 BMatC= 3.94D-01 BMatP= 1.87D+00
 IDIUse=3 WtCom= 7.32D-01 WtEn= 2.68D-01
 Coeff-Com: -0.579D+00 0.158D+01
 Coeff-En:   0.000D+00 0.100D+01
 Coeff:     -0.424D+00 0.142D+01
 Gap=     0.275 Goal=   None    Shift=    0.000
 RMSDP=1.47D-02 MaxDP=1.58D+00 DE=-1.27D-01 OVMax= 2.24D-01

 Cycle   3  Pass 1  IDiag  1:
 RMSU=  5.36D-03    CP:  6.88D-01  1.41D+00
 E= -863.048910842960     Delta-E=       -0.045393090783 Rises=F Damp=F
 DIIS: error= 2.40D-02 at cycle   3 NSaved=   3.
 NSaved= 3 IEnMin= 3 EnMin= -863.048910842960     IErMin= 3 ErrMin= 2.40D-02
 ErrMax= 2.40D-02  0.00D+00 EMaxC= 1.00D-01 BMatC= 1.31D-01 BMatP= 3.94D-01
 IDIUse=3 WtCom= 7.60D-01 WtEn= 2.40D-01
 Coeff-Com: -0.377D+00 0.809D+00 0.567D+00
 Coeff-En:   0.000D+00 0.252D+00 0.748D+00
 Coeff:     -0.286D+00 0.676D+00 0.611D+00
 Gap=     0.271 Goal=   None    Shift=    0.000
 RMSDP=4.77D-03 MaxDP=3.63D-01 DE=-4.54D-02 OVMax= 1.10D-01

 Cycle   4  Pass 1  IDiag  1:
 RMSU=  1.79D-03    CP:  6.50D-01  1.56D+00  4.30D-01
 E= -863.152347971660     Delta-E=       -0.103437128700 Rises=F Damp=F
 DIIS: error= 5.27D-03 at cycle   4 NSaved=   4.
 NSaved= 4 IEnMin= 4 EnMin= -863.152347971660     IErMin= 4 ErrMin= 5.27D-03
 ErrMax= 5.27D-03  0.00D+00 EMaxC= 1.00D-01 BMatC= 1.21D-02 BMatP= 1.31D-01
 IDIUse=3 WtCom= 9.47D-01 WtEn= 5.27D-02
 Coeff-Com: -0.142D+00 0.307D+00 0.348D+00 0.487D+00
 Coeff-En:   0.000D+00 0.000D+00 0.178D-01 0.982D+00
 Coeff:     -0.135D+00 0.291D+00 0.331D+00 0.513D+00
 Gap=     0.239 Goal=   None    Shift=    0.000
 RMSDP=1.29D-03 MaxDP=1.22D-01 DE=-1.03D-01 OVMax= 2.51D-02

 Cycle   5  Pass 1  IDiag  1:
 RMSU=  4.78D-04    CP:  6.61D-01  1.60D+00  5.58D-01  7.59D-01
 E= -863.162204343697     Delta-E=       -0.009856372038 Rises=F Damp=F
 DIIS: error= 7.43D-04 at cycle   5 NSaved=   5.
 NSaved= 5 IEnMin= 5 EnMin= -863.162204343697     IErMin= 5 ErrMin= 7.43D-04
 ErrMax= 7.43D-04  0.00D+00 EMaxC= 1.00D-01 BMatC= 1.77D-04 BMatP= 1.21D-02
 IDIUse=3 WtCom= 9.93D-01 WtEn= 7.43D-03
 Coeff-Com:  0.236D-01-0.505D-01 0.457D-02 0.154D+00 0.868D+00
 Coeff-En:   0.000D+00 0.000D+00 0.000D+00 0.000D+00 0.100D+01
 Coeff:      0.234D-01-0.501D-01 0.454D-02 0.153D+00 0.869D+00
 Gap=     0.239 Goal=   None    Shift=    0.000
 RMSDP=4.14D-04 MaxDP=3.29D-02 DE=-9.86D-03 OVMax= 9.09D-03

 Cycle   6  Pass 1  IDiag  1:
 RMSU=  2.55D-04    CP:  6.58D-01  1.59D+00  5.54D-01  8.80D-01  1.03D+00
 E= -863.162454917470     Delta-E=       -0.000250573773 Rises=F Damp=F
 DIIS: error= 5.71D-04 at cycle   6 NSaved=   6.
 NSaved= 6 IEnMin= 6 EnMin= -863.162454917470     IErMin= 6 ErrMin= 5.71D-04
 ErrMax= 5.71D-04  0.00D+00 EMaxC= 1.00D-01 BMatC= 5.91D-05 BMatP= 1.77D-04
 IDIUse=3 WtCom= 9.94D-01 WtEn= 5.71D-03
 Coeff-Com:  0.287D-01-0.618D-01-0.425D-01 0.156D-02 0.442D+00 0.632D+00
 Coeff-En:   0.000D+00 0.000D+00 0.000D+00 0.000D+00 0.000D+00 0.100D+01
 Coeff:      0.286D-01-0.614D-01-0.423D-01 0.155D-02 0.440D+00 0.634D+00
 Gap=     0.241 Goal=   None    Shift=    0.000
 RMSDP=1.02D-04 MaxDP=8.14D-03 DE=-2.51D-04 OVMax= 4.69D-03

 Cycle   7  Pass 1  IDiag  1:
 RMSU=  6.70D-05    CP:  6.58D-01  1.60D+00  5.52D-01  8.99D-01  1.16D+00
                    CP:  1.04D+00
 E= -863.162529838906     Delta-E=       -0.000074921436 Rises=F Damp=F
 DIIS: error= 1.50D-04 at cycle   7 NSaved=   7.
 NSaved= 7 IEnMin= 7 EnMin= -863.162529838906     IErMin= 7 ErrMin= 1.50D-04
 ErrMax= 1.50D-04  0.00D+00 EMaxC= 1.00D-01 BMatC= 4.93D-06 BMatP= 5.91D-05
 IDIUse=3 WtCom= 9.98D-01 WtEn= 1.50D-03
 Coeff-Com:  0.217D-02-0.462D-02-0.827D-02-0.200D-01-0.341D-01 0.176D+00
 Coeff-Com:  0.888D+00
 Coeff-En:   0.000D+00 0.000D+00 0.000D+00 0.000D+00 0.000D+00 0.000D+00
 Coeff-En:   0.100D+01
 Coeff:      0.216D-02-0.461D-02-0.826D-02-0.200D-01-0.341D-01 0.176D+00
 Coeff:      0.889D+00
 Gap=     0.241 Goal=   None    Shift=    0.000
 RMSDP=5.47D-05 MaxDP=4.12D-03 DE=-7.49D-05 OVMax= 2.75D-03

 Cycle   8  Pass 1  IDiag  1:
 RMSU=  3.52D-05    CP:  6.58D-01  1.60D+00  5.49D-01  9.11D-01  1.19D+00
                    CP:  1.15D+00  1.06D+00
 E= -863.162542604779     Delta-E=       -0.000012765873 Rises=F Damp=F
 DIIS: error= 7.89D-05 at cycle   8 NSaved=   8.
 NSaved= 8 IEnMin= 8 EnMin= -863.162542604779     IErMin= 8 ErrMin= 7.89D-05
 ErrMax= 7.89D-05  0.00D+00 EMaxC= 1.00D-01 BMatC= 1.28D-06 BMatP= 4.93D-06
 IDIUse=1 WtCom= 1.00D+00 WtEn= 0.00D+00
 Coeff-Com: -0.328D-02 0.707D-02 0.239D-02-0.114D-01-0.952D-01-0.141D-01
 Coeff-Com:  0.412D+00 0.702D+00
 Coeff:     -0.328D-02 0.707D-02 0.239D-02-0.114D-01-0.952D-01-0.141D-01
 Coeff:      0.412D+00 0.702D+00
 Gap=     0.241 Goal=   None    Shift=    0.000
 RMSDP=2.56D-05 MaxDP=2.89D-03 DE=-1.28D-05 OVMax= 1.45D-03

 Cycle   9  Pass 1  IDiag  1:
 RMSU=  1.25D-05    CP:  6.58D-01  1.60D+00  5.48D-01  9.15D-01  1.22D+00
                    CP:  1.18D+00  1.20D+00  1.12D+00
 E= -863.162545741140     Delta-E=       -0.000003136361 Rises=F Damp=F
 DIIS: error= 2.81D-05 at cycle   9 NSaved=   9.
 NSaved= 9 IEnMin= 9 EnMin= -863.162545741140     IErMin= 9 ErrMin= 2.81D-05
 ErrMax= 2.81D-05  0.00D+00 EMaxC= 1.00D-01 BMatC= 1.50D-07 BMatP= 1.28D-06
 IDIUse=1 WtCom= 1.00D+00 WtEn= 0.00D+00
 Coeff-Com: -0.130D-02 0.277D-02 0.273D-02 0.143D-02-0.193D-01-0.366D-01
 Coeff-Com: -0.864D-01 0.147D+00 0.989D+00
 Coeff:     -0.130D-02 0.277D-02 0.273D-02 0.143D-02-0.193D-01-0.366D-01
 Coeff:     -0.864D-01 0.147D+00 0.989D+00
 Gap=     0.241 Goal=   None    Shift=    0.000
 RMSDP=1.43D-05 MaxDP=1.15D-03 DE=-3.14D-06 OVMax= 7.88D-04

 Cycle  10  Pass 1  IDiag  1:
 RMSU=  8.83D-06    CP:  6.58D-01  1.60D+00  5.48D-01  9.16D-01  1.22D+00
                    CP:  1.20D+00  1.28D+00  1.25D+00  1.16D+00
 E= -863.162546370753     Delta-E=       -0.000000629613 Rises=F Damp=F
 DIIS: error= 1.13D-05 at cycle  10 NSaved=  10.
 NSaved=10 IEnMin=10 EnMin= -863.162546370753     IErMin=10 ErrMin= 1.13D-05
 ErrMax= 1.13D-05  0.00D+00 EMaxC= 1.00D-01 BMatC= 2.11D-08 BMatP= 1.50D-07
 IDIUse=1 WtCom= 1.00D+00 WtEn= 0.00D+00
 Coeff-Com:  0.217D-03-0.469D-03 0.331D-03 0.223D-02 0.808D-02-0.728D-02
 Coeff-Com: -0.846D-01-0.519D-01 0.286D+00 0.847D+00
 Coeff:      0.217D-03-0.469D-03 0.331D-03 0.223D-02 0.808D-02-0.728D-02
 Coeff:     -0.846D-01-0.519D-01 0.286D+00 0.847D+00
 Gap=     0.241 Goal=   None    Shift=    0.000
 RMSDP=5.03D-06 MaxDP=4.31D-04 DE=-6.30D-07 OVMax= 2.66D-04

 Cycle  11  Pass 1  IDiag  1:
 RMSU=  1.79D-06    CP:  6.58D-01  1.60D+00  5.48D-01  9.16D-01  1.23D+00
                    CP:  1.20D+00  1.30D+00  1.30D+00  1.30D+00  1.13D+00
 E= -863.162546443996     Delta-E=       -0.000000073243 Rises=F Damp=F
 DIIS: error= 4.25D-06 at cycle  11 NSaved=  11.
 NSaved=11 IEnMin=11 EnMin= -863.162546443996     IErMin=11 ErrMin= 4.25D-06
 ErrMax= 4.25D-06  0.00D+00 EMaxC= 1.00D-01 BMatC= 4.94D-09 BMatP= 2.11D-08
 IDIUse=1 WtCom= 1.00D+00 WtEn= 0.00D+00
 Coeff-Com:  0.271D-03-0.578D-03-0.281D-03 0.758D-03 0.575D-02 0.296D-02
 Coeff-Com: -0.122D-01-0.370D-01-0.867D-01 0.287D+00 0.840D+00
 Coeff:      0.271D-03-0.578D-03-0.281D-03 0.758D-03 0.575D-02 0.296D-02
 Coeff:     -0.122D-01-0.370D-01-0.867D-01 0.287D+00 0.840D+00
 Gap=     0.241 Goal=   None    Shift=    0.000
 RMSDP=1.99D-06 MaxDP=9.14D-05 DE=-7.32D-08 OVMax= 8.01D-05

 Cycle  12  Pass 1  IDiag  1:
 RMSU=  9.67D-07    CP:  6.58D-01  1.60D+00  5.47D-01  9.16D-01  1.23D+00
                    CP:  1.20D+00  1.31D+00  1.31D+00  1.35D+00  1.21D+00
                    CP:  1.31D+00
 E= -863.162546456316     Delta-E=       -0.000000012320 Rises=F Damp=F
 DIIS: error= 2.47D-06 at cycle  12 NSaved=  12.
 NSaved=12 IEnMin=12 EnMin= -863.162546456316     IErMin=12 ErrMin= 2.47D-06
 ErrMax= 2.47D-06  0.00D+00 EMaxC= 1.00D-01 BMatC= 7.69D-10 BMatP= 4.94D-09
 IDIUse=1 WtCom= 1.00D+00 WtEn= 0.00D+00
 Coeff-Com:  0.682D-04-0.143D-03-0.145D-03 0.255D-05 0.981D-03 0.177D-02
 Coeff-Com:  0.962D-02-0.450D-02-0.784D-01-0.344D-01 0.297D+00 0.808D+00
 Coeff:      0.682D-04-0.143D-03-0.145D-03 0.255D-05 0.981D-03 0.177D-02
 Coeff:      0.962D-02-0.450D-02-0.784D-01-0.344D-01 0.297D+00 0.808D+00
 Gap=     0.241 Goal=   None    Shift=    0.000
 RMSDP=1.10D-06 MaxDP=8.23D-05 DE=-1.23D-08 OVMax= 2.84D-05

 Cycle  13  Pass 1  IDiag  1:
 RMSU=  4.26D-07    CP:  6.58D-01  1.60D+00  5.47D-01  9.16D-01  1.23D+00
                    CP:  1.20D+00  1.31D+00  1.31D+00  1.35D+00  1.27D+00
                    CP:  1.47D+00  1.15D+00
 E= -863.162546458106     Delta-E=       -0.000000001791 Rises=F Damp=F
 DIIS: error= 8.23D-07 at cycle  13 NSaved=  13.
 NSaved=13 IEnMin=13 EnMin= -863.162546458106     IErMin=13 ErrMin= 8.23D-07
 ErrMax= 8.23D-07  0.00D+00 EMaxC= 1.00D-01 BMatC= 1.96D-10 BMatP= 7.69D-10
 IDIUse=1 WtCom= 1.00D+00 WtEn= 0.00D+00
 Coeff-Com: -0.148D-04 0.321D-04-0.217D-04-0.140D-03-0.580D-03 0.187D-03
 Coeff-Com:  0.721D-02 0.415D-02-0.218D-01-0.670D-01-0.104D-01 0.394D+00
 Coeff-Com:  0.695D+00
 Coeff:     -0.148D-04 0.321D-04-0.217D-04-0.140D-03-0.580D-03 0.187D-03
 Coeff:      0.721D-02 0.415D-02-0.218D-01-0.670D-01-0.104D-01 0.394D+00
 Coeff:      0.695D+00
 Gap=     0.241 Goal=   None    Shift=    0.000
 RMSDP=3.40D-07 MaxDP=1.97D-05 DE=-1.79D-09 OVMax= 8.94D-06

 Cycle  14  Pass 1  IDiag  1:
 RMSU=  1.70D-07    CP:  6.58D-01  1.60D+00  5.47D-01  9.16D-01  1.23D+00
                    CP:  1.20D+00  1.31D+00  1.31D+00  1.35D+00  1.27D+00
                    CP:  1.52D+00  1.27D+00  9.47D-01
 E= -863.162546458414     Delta-E=       -0.000000000307 Rises=F Damp=F
 DIIS: error= 3.55D-07 at cycle  14 NSaved=  14.
 NSaved=14 IEnMin=14 EnMin= -863.162546458414     IErMin=14 ErrMin= 3.55D-07
 ErrMax= 3.55D-07  0.00D+00 EMaxC= 1.00D-01 BMatC= 1.13D-11 BMatP= 1.96D-10
 IDIUse=1 WtCom= 1.00D+00 WtEn= 0.00D+00
 Coeff-Com: -0.105D-04 0.222D-04 0.105D-04-0.431D-04-0.253D-03-0.204D-03
 Coeff-Com:  0.412D-03 0.973D-03 0.597D-02-0.954D-02-0.425D-01-0.833D-02
 Coeff-Com:  0.118D+00 0.935D+00
 Coeff:     -0.105D-04 0.222D-04 0.105D-04-0.431D-04-0.253D-03-0.204D-03
 Coeff:      0.412D-03 0.973D-03 0.597D-02-0.954D-02-0.425D-01-0.833D-02
 Coeff:      0.118D+00 0.935D+00
 Gap=     0.241 Goal=   None    Shift=    0.000
 RMSDP=1.46D-07 MaxDP=1.14D-05 DE=-3.07D-10 OVMax= 5.17D-06

 Cycle  15  Pass 1  IDiag  1:
 RMSU=  4.89D-08    CP:  6.58D-01  1.60D+00  5.47D-01  9.16D-01  1.23D+00
                    CP:  1.20D+00  1.31D+00  1.31D+00  1.35D+00  1.27D+00
                    CP:  1.52D+00  1.33D+00  1.02D+00  1.27D+00
 E= -863.162546458538     Delta-E=       -0.000000000124 Rises=F Damp=F
 DIIS: error= 1.34D-07 at cycle  15 NSaved=  15.
 NSaved=15 IEnMin=15 EnMin= -863.162546458538     IErMin=15 ErrMin= 1.34D-07
 ErrMax= 1.34D-07  0.00D+00 EMaxC= 1.00D-01 BMatC= 2.21D-12 BMatP= 1.13D-11
 IDIUse=1 WtCom= 1.00D+00 WtEn= 0.00D+00
 Coeff-Com: -0.213D-05 0.442D-05 0.646D-05 0.200D-05-0.652D-05-0.907D-04
 Coeff-Com: -0.691D-03-0.358D-03 0.448D-02 0.550D-02-0.125D-01-0.460D-01
 Coeff-Com: -0.642D-01 0.263D+00 0.851D+00
 Coeff:     -0.213D-05 0.442D-05 0.646D-05 0.200D-05-0.652D-05-0.907D-04
 Coeff:     -0.691D-03-0.358D-03 0.448D-02 0.550D-02-0.125D-01-0.460D-01
 Coeff:     -0.642D-01 0.263D+00 0.851D+00
 Gap=     0.241 Goal=   None    Shift=    0.000
 RMSDP=5.11D-08 MaxDP=3.06D-06 DE=-1.24D-10 OVMax= 2.27D-06

 Cycle  16  Pass 1  IDiag  1:
 RMSU=  1.99D-08    CP:  6.58D-01  1.60D+00  5.47D-01  9.16D-01  1.23D+00
                    CP:  1.20D+00  1.31D+00  1.31D+00  1.35D+00  1.27D+00
                    CP:  1.52D+00  1.35D+00  1.07D+00  1.40D+00  1.10D+00
 E= -863.162546458544     Delta-E=       -0.000000000007 Rises=F Damp=F
 DIIS: error= 5.50D-08 at cycle  16 NSaved=  16.
 NSaved=16 IEnMin=16 EnMin= -863.162546458544     IErMin=16 ErrMin= 5.50D-08
 ErrMax= 5.50D-08  0.00D+00 EMaxC= 1.00D-01 BMatC= 3.80D-13 BMatP= 2.21D-12
 IDIUse=1 WtCom= 1.00D+00 WtEn= 0.00D+00
 Coeff-Com:  0.102D-05-0.216D-05-0.518D-06 0.745D-05 0.424D-04 0.122D-04
 Coeff-Com: -0.146D-03-0.276D-03-0.341D-03 0.273D-02 0.472D-02-0.227D-02
 Coeff-Com: -0.391D-01-0.140D+00 0.161D+00 0.101D+01
 Coeff:      0.102D-05-0.216D-05-0.518D-06 0.745D-05 0.424D-04 0.122D-04
 Coeff:     -0.146D-03-0.276D-03-0.341D-03 0.273D-02 0.472D-02-0.227D-02
 Coeff:     -0.391D-01-0.140D+00 0.161D+00 0.101D+01
 Gap=     0.241 Goal=   None    Shift=    0.000
 RMSDP=2.28D-08 MaxDP=1.19D-06 DE=-6.82D-12 OVMax= 1.17D-06

 Cycle  17  Pass 1  IDiag  1:
 RMSU=  7.42D-09    CP:  6.58D-01  1.60D+00  5.47D-01  9.16D-01  1.23D+00
                    CP:  1.20D+00  1.31D+00  1.31D+00  1.35D+00  1.27D+00
                    CP:  1.52D+00  1.35D+00  1.07D+00  1.49D+00  1.24D+00
                    CP:  1.26D+00
 E= -863.162546458513     Delta-E=        0.000000000031 Rises=F Damp=F
 DIIS: error= 1.73D-08 at cycle  17 NSaved=  17.
 NSaved=17 IEnMin=16 EnMin= -863.162546458544     IErMin=17 ErrMin= 1.73D-08
 ErrMax= 1.73D-08  0.00D+00 EMaxC= 1.00D-01 BMatC= 4.02D-14 BMatP= 3.80D-13
 IDIUse=1 WtCom= 1.00D+00 WtEn= 0.00D+00
 Coeff-Com:  0.346D-06-0.723D-06-0.624D-06 0.153D-05 0.979D-05 0.110D-04
 Coeff-Com:  0.490D-04-0.220D-04-0.523D-03 0.467D-04 0.189D-02 0.570D-02
 Coeff-Com: -0.804D-03-0.531D-01-0.585D-01 0.188D+00 0.917D+00
 Coeff:      0.346D-06-0.723D-06-0.624D-06 0.153D-05 0.979D-05 0.110D-04
 Coeff:      0.490D-04-0.220D-04-0.523D-03 0.467D-04 0.189D-02 0.570D-02
 Coeff:     -0.804D-03-0.531D-01-0.585D-01 0.188D+00 0.917D+00
 Gap=     0.241 Goal=   None    Shift=    0.000
 RMSDP=8.61D-09 MaxDP=7.49D-07 DE= 3.14D-11 OVMax= 3.37D-07

 SCF Done:  E(RwB97XD) =  -863.162546459     A.U. after   17 cycles
            NFock= 17  Conv=0.86D-08     -V/T= 2.0047
 KE= 8.591566877657D+02 PE=-4.725819820500D+03 EE= 1.645112518652D+03
 Leave Link  502 at Mon Jan 29 13:25:29 2018, MaxMem=  1879048192 cpu:      2287.7
 (Enter /share/apps/gaussian/g09_D01/g09/l801.exe)
 DoSCS=F DFT=T ScalE2(SS,OS)=  1.000000  1.000000
 ExpMin= 3.60D-02 ExpMax= 8.59D+03 ExpMxC= 1.30D+03 IAcc=3 IRadAn=         5 AccDes= 0.00D+00
 HarFok:  IExCor=  205 AccDes= 0.00D+00 IRadAn=         5 IDoV=-2 UseB2=F ITyADJ=14
 ICtDFT= 12500011 ScaDFX=  1.000000  1.000000  1.000000  1.000000
 Largest valence mixing into a core orbital is  5.71D-05
 Largest core mixing into a valence orbital is  1.62D-05
 Range of M.O.s used for correlation:    21   553
 NBasis=   559 NAE=    71 NBE=    71 NFC=    20 NFV=     0
 NROrb=    533 NOA=    51 NOB=    51 NVA=   482 NVB=   482

 **** Warning!!: The largest alpha MO coefficient is  0.13545976D+03

 Leave Link  801 at Mon Jan 29 13:25:30 2018, MaxMem=  1879048192 cpu:         1.3
 (Enter /share/apps/gaussian/g09_D01/g09/l914.exe)
 RHF ground state
 MDV=  1879048192 DFT=T DoStab=F Mixed=T DoRPA=T DoScal=F NonHer=T
 Would need an additional         71714600000 words for in-memory AO integral storage.
 Making orbital integer symmetry assigments:
    16 initial guesses have been made.
 Convergence on wavefunction:    0.001000000000000
 Davidson Disk Diagonalization:  ConvIn= 1.00D-03 SkipCon=T Conv= 1.00D-03.
 Max sub-space:   200 roots to seek:    16 dimension of matrix:        49164
 Iteration     1 Dimension    16 NMult     0 NNew     16
 CISAX will form    16 AO SS matrices at one time.
 NMat=    16 NSing=    16 JSym2X= 0.
 FoFJK:  IHMeth= 1 ICntrl=       0 DoSepK=T KAlg= 0 I1Cent=   0 FoldK=F
 IRaf=         1 NMat=  32 IRICut=       1 DoRegI=T DoRafI=F ISym2E= 0.
 FoFCou: FMM=F IPFlag=           0 FMFlag=      100000 FMFlg1=           0
         NFxFlg=           0 DoJE=F BraDBF=F KetDBF=F FulRan=T
         wScrn=  0.000000 ICntrl=     500 IOpCl=  0 I1Cent=           0 NGrid=           0
         NMat0=   16 NMatS0=     16 NMatT0=    0 NMatD0=   16 NMtDS0=    0 NMtDT0=    0
 Symmetry not used in FoFCou.
 New state      2 was old state      7
 New state      3 was old state      2
 New state      4 was old state      9
 Excitation Energies [eV] at current iteration:
 Root      1 :     3.822803234919602
 Root      2 :     4.283722752779572
 Root      3 :     4.517689548042249
 Root      4 :     5.074984772880271
 Root      5 :     5.440028647540721
 Root      6 :     5.649323825530822
 Root      7 :     5.875246252028679
 Root      8 :     5.944999964086001
 Root      9 :     6.124263702268644
 Root     10 :     6.157351433448873
 Root     11 :     6.268395072822886
 Root     12 :     6.412511598279539
 Root     13 :     6.532727881695762
 Root     14 :     6.596794179410773
 Root     15 :     7.209621892537568
 Root     16 :     7.410115668984017
 Iteration     2 Dimension    24 NMult    16 NNew      8
 CISAX will form     8 AO SS matrices at one time.
 NMat=     8 NSing=     8 JSym2X= 0.
 Root      1 not converged, maximum delta is    0.056614980937886
 Root      2 not converged, maximum delta is    0.111675111318473
 Root      3 not converged, maximum delta is    0.105584795862008
 Root      4 not converged, maximum delta is    0.128529324105039
 Excitation Energies [eV] at current iteration:
 Root      1 :     3.383777381658100   Change is   -0.439025853261502
 Root      2 :     3.836935643673036   Change is   -0.446787109106536
 Root      3 :     3.955306654364137   Change is   -0.562382893678112
 Root      4 :     4.544901671903760   Change is   -0.530083100976510
 Iteration     3 Dimension    32 NMult    24 NNew      8
 CISAX will form     8 AO SS matrices at one time.
 NMat=     8 NSing=     8 JSym2X= 0.
 Root      1 not converged, maximum delta is    0.011860323435559
 Root      2 not converged, maximum delta is    0.017612542800134
 Root      3 not converged, maximum delta is    0.035231896680954
 Root      4 not converged, maximum delta is    0.040138356784340
 Excitation Energies [eV] at current iteration:
 Root      1 :     3.351333002641488   Change is   -0.032444379016612
 Root      2 :     3.810564228395236   Change is   -0.026371415277800
 Root      3 :     3.906551003665827   Change is   -0.048755650698310
 Root      4 :     4.497088187706920   Change is   -0.047813484196841
 Iteration     4 Dimension    40 NMult    32 NNew      8
 CISAX will form     8 AO SS matrices at one time.
 NMat=     8 NSing=     8 JSym2X= 0.
 Root      1 not converged, maximum delta is    0.008366455885173
 Root      2 not converged, maximum delta is    0.005356620420795
 Root      3 not converged, maximum delta is    0.018166014671980
 Root      4 not converged, maximum delta is    0.011320288169211
 Excitation Energies [eV] at current iteration:
 Root      1 :     3.346554571499298   Change is   -0.004778431142190
 Root      2 :     3.808866065403501   Change is   -0.001698162991735
 Root      3 :     3.893399326941984   Change is   -0.013151676723843
 Root      4 :     4.490663621175071   Change is   -0.006424566531849
 Iteration     5 Dimension    48 NMult    40 NNew      8
 CISAX will form     8 AO SS matrices at one time.
 NMat=     8 NSing=     8 JSym2X= 0.
 Root      1 not converged, maximum delta is    0.002715433038019
 Root      2 not converged, maximum delta is    0.001526154008854
 Root      3 not converged, maximum delta is    0.004891765595057
 Root      4 not converged, maximum delta is    0.002015815299893
 Excitation Energies [eV] at current iteration:
 Root      1 :     3.346063441430317   Change is   -0.000491130068981
 Root      2 :     3.808730945117230   Change is   -0.000135120286271
 Root      3 :     3.891725067691496   Change is   -0.001674259250489
 Root      4 :     4.490235697037964   Change is   -0.000427924137107
 Iteration     6 Dimension    56 NMult    48 NNew      8
 CISAX will form     8 AO SS matrices at one time.
 NMat=     8 NSing=     8 JSym2X= 0.
 Root      1 has converged.
 Root      2 has converged.
 Root      3 not converged, maximum delta is    0.001233381271144
 Root      4 not converged, maximum delta is    0.001370086683620
 Excitation Energies [eV] at current iteration:
 Root      1 :     3.346011114781170   Change is   -0.000052326649147
 Root      2 :     3.808719016915344   Change is   -0.000011928201886
 Root      3 :     3.891511745984955   Change is   -0.000213321706541
 Root      4 :     4.490176481997064   Change is   -0.000059215040900
 Iteration     7 Dimension    60 NMult    56 NNew      4
 CISAX will form     4 AO SS matrices at one time.
 NMat=     4 NSing=     4 JSym2X= 0.
 Root      1 has converged.
 Root      2 has converged.
 Root      3 has converged.
 Root      4 has converged.
 Excitation Energies [eV] at current iteration:
 Root      1 :     3.346011015274469   Change is   -0.000000099506701
 Root      2 :     3.808718951346058   Change is   -0.000000065569286
 Root      3 :     3.891493191833338   Change is   -0.000018554151616
 Root      4 :     4.490166423980196   Change is   -0.000010058016868
 Convergence achieved on expansion vectors.
 ***********************************************************************
 Excited states from <AA,BB:AA,BB> singles matrix:
 ***********************************************************************
 
 1PDM for each excited state written to RWF  633
 Ground to excited state transition densities written to RWF  633
 Ground to excited state transition electric dipole moments (Au):
       state          X           Y           Z        Dip. S.      Osc.
         1         3.5763      0.3317     -1.3587     14.7463      1.2088
         2         0.1899      0.0017     -0.0563      0.0392      0.0037
         3         0.4454     -0.0706     -0.2724      0.2775      0.0265
         4         0.4896      0.3724      0.1531      0.4018      0.0442
 Ground to excited state transition velocity dipole moments (Au):
       state          X           Y           Z        Dip. S.      Osc.
         1        -0.4340     -0.0384      0.1674      0.2178      1.1811
         2        -0.0265      0.0015      0.0070      0.0008      0.0036
         3        -0.0599      0.0080      0.0339      0.0048      0.0224
         4        -0.0792     -0.0664     -0.0311      0.0117      0.0471
 Ground to excited state transition magnetic dipole moments (Au):
       state          X           Y           Z
         1        -1.5289      1.5934     -3.6339
         2        -0.0343     -0.1187     -0.6026
         3        -0.5345      1.0247     -1.0584
         4        -0.1300      0.6513     -0.9759
 Ground to excited state transition velocity quadrupole moments (Au):
       state          XX          YY          ZZ          XY          XZ          YZ
         1        -4.5521      0.5249     -1.5210      2.6541      2.7293     -0.9770
         2        -0.3253     -0.0544     -0.0295      0.1881      0.1754     -0.0657
         3         1.3816     -0.1499      0.0585      0.5046     -0.5157     -0.3535
         4        -0.4487      1.0072      0.0607      0.6056      0.4192      0.3864
 <0|del|b> * <b|rxdel|0> + <0|del|b> * <b|delr+rdel|0>
 Rotatory Strengths (R) in cgs (10**-40 erg-esu-cm/Gauss)
       state          XX          YY          ZZ    R(velocity)    E-M Angle
         1      -346.3188    100.4613    211.8204    -11.3457       90.17
         2        -8.4330     -7.2141     -1.8735     -5.8402      101.87
         3       -16.0027      0.3029     36.8716      7.0573       87.74
         4        -8.3817     61.7142    -64.6350     -3.7675       91.19
 1/2[<0|r|b>*<b|rxdel|0> + (<0|rxdel|b>*<b|r|0>)*]
 Rotatory Strengths (R) in cgs (10**-40 erg-esu-cm/Gauss)
       state          XX          YY          ZZ     R(length)
         1      3866.7462   -373.7873  -3491.5970      0.4540
         2         4.6114      0.1408    -23.9928     -6.4135
         3       168.3404     51.1789   -203.8861      5.2111
         4        45.0163   -171.5272    105.6316     -6.9598
  1/2[<0|del|b>*<b|r|0> + (<0|r|b>*<b|del|0>)*] (Au)
       state          X           Y           Z        Dip. S.   Osc.(frdel)
         1        -1.5521     -0.0127     -0.2275      1.7923      1.1949
         2        -0.0050      0.0000     -0.0004      0.0054      0.0036
         3        -0.0267     -0.0006     -0.0092      0.0365      0.0243
         4        -0.0388     -0.0247     -0.0048      0.0683      0.0455

 Excitation energies and oscillator strengths:
 
 Excited state symmetry could not be determined.
 Excited State   1:      Singlet-?Sym    3.3460 eV  370.54 nm  f=1.2088  <S**2>=0.000
      70 -> 72        -0.14014
      70 -> 74        -0.12196
      71 -> 72         0.65943
 This state for optimization and/or second-order correction.
 Total Energy, E(TD-HF/TD-KS) =  -863.039582811    
 Copying the excited state density for this state as the 1-particle RhoCI density.
 
 Excited state symmetry could not be determined.
 Excited State   2:      Singlet-?Sym    3.8087 eV  325.53 nm  f=0.0037  <S**2>=0.000
      68 -> 72         0.66398
      68 -> 74         0.14057
 
 Excited state symmetry could not be determined.
 Excited State   3:      Singlet-?Sym    3.8915 eV  318.60 nm  f=0.0265  <S**2>=0.000
      70 -> 72         0.63508
      70 -> 74         0.17788
      71 -> 72         0.14311
      71 -> 74        -0.13969
 
 Excited state symmetry could not be determined.
 Excited State   4:      Singlet-?Sym    4.4902 eV  276.12 nm  f=0.0442  <S**2>=0.000
      67 -> 72         0.27148
      67 -> 74        -0.12807
      70 -> 77         0.11652
      71 -> 74         0.27181
      71 -> 77         0.53404
 SavETr:  write IOETrn=   770 NScale= 10 NData=  16 NLR=1 NState=    4 LETran=      82.
 Leave Link  914 at Mon Jan 29 14:10:17 2018, MaxMem=  1879048192 cpu:      5363.5
 (Enter /share/apps/gaussian/g09_D01/g09/l601.exe)
 Copying SCF densities to generalized density rwf, IOpCl= 0 IROHF=0.

 **********************************************************************

            Population analysis using the SCF density.

 **********************************************************************

 Alpha  occ. eigenvalues --  -19.24247 -19.23379 -14.47977 -10.38265 -10.35619
 Alpha  occ. eigenvalues --  -10.35419 -10.33771 -10.33755 -10.31809 -10.30946
 Alpha  occ. eigenvalues --  -10.30835 -10.30162 -10.30142 -10.30073 -10.29842
 Alpha  occ. eigenvalues --  -10.29821 -10.29749 -10.29038 -10.28435 -10.28175
 Alpha  occ. eigenvalues --   -1.14935  -1.11100  -1.08217  -0.97225  -0.95647
 Alpha  occ. eigenvalues --   -0.91073  -0.87403  -0.87200  -0.84906  -0.84299
 Alpha  occ. eigenvalues --   -0.83581  -0.79489  -0.74739  -0.72270  -0.71546
 Alpha  occ. eigenvalues --   -0.69185  -0.67978  -0.64675  -0.63469  -0.61394
 Alpha  occ. eigenvalues --   -0.59780  -0.58993  -0.57923  -0.57831  -0.55779
 Alpha  occ. eigenvalues --   -0.55442  -0.54274  -0.52793  -0.52626  -0.51610
 Alpha  occ. eigenvalues --   -0.51517  -0.51252  -0.51038  -0.50312  -0.48741
 Alpha  occ. eigenvalues --   -0.48290  -0.47342  -0.46748  -0.46241  -0.46066
 Alpha  occ. eigenvalues --   -0.45352  -0.42853  -0.42172  -0.41915  -0.41401
 Alpha  occ. eigenvalues --   -0.35234  -0.35071  -0.34211  -0.33593  -0.29522
 Alpha  occ. eigenvalues --   -0.27103
 Alpha virt. eigenvalues --   -0.03030   0.02540   0.03205   0.03798   0.04301
 Alpha virt. eigenvalues --    0.04381   0.04877   0.05649   0.06177   0.06319
 Alpha virt. eigenvalues --    0.06806   0.06973   0.07800   0.07996   0.08059
 Alpha virt. eigenvalues --    0.08621   0.09242   0.09355   0.10472   0.10629
 Alpha virt. eigenvalues --    0.10931   0.11289   0.11998   0.12344   0.13062
 Alpha virt. eigenvalues --    0.13192   0.13434   0.13736   0.14253   0.14658
 Alpha virt. eigenvalues --    0.15223   0.15421   0.15795   0.15941   0.16056
 Alpha virt. eigenvalues --    0.16153   0.16535   0.16777   0.17193   0.17312
 Alpha virt. eigenvalues --    0.17522   0.17691   0.18346   0.18525   0.18952
 Alpha virt. eigenvalues --    0.19483   0.19497   0.19959   0.20121   0.20447
 Alpha virt. eigenvalues --    0.20682   0.20924   0.21278   0.21680   0.21912
 Alpha virt. eigenvalues --    0.22077   0.22372   0.22417   0.22889   0.23165
 Alpha virt. eigenvalues --    0.23476   0.23598   0.23965   0.24131   0.24810
 Alpha virt. eigenvalues --    0.24978   0.25409   0.25529   0.25862   0.26317
 Alpha virt. eigenvalues --    0.26517   0.26699   0.26930   0.27558   0.28045
 Alpha virt. eigenvalues --    0.28186   0.28619   0.29146   0.29402   0.29928
 Alpha virt. eigenvalues --    0.30270   0.30467   0.30577   0.30771   0.31107
 Alpha virt. eigenvalues --    0.31512   0.31751   0.32250   0.32628   0.33297
 Alpha virt. eigenvalues --    0.33609   0.33840   0.34285   0.34465   0.34689
 Alpha virt. eigenvalues --    0.35465   0.35712   0.35952   0.36774   0.37059
 Alpha virt. eigenvalues --    0.37338   0.37757   0.37804   0.38149   0.38555
 Alpha virt. eigenvalues --    0.39026   0.39257   0.39598   0.40268   0.40620
 Alpha virt. eigenvalues --    0.40864   0.41589   0.41741   0.42659   0.42846
 Alpha virt. eigenvalues --    0.43746   0.44017   0.44268   0.44954   0.46041
 Alpha virt. eigenvalues --    0.46475   0.47240   0.48318   0.49290   0.49461
 Alpha virt. eigenvalues --    0.49903   0.50504   0.50866   0.52121   0.52818
 Alpha virt. eigenvalues --    0.54368   0.54510   0.55468   0.56905   0.58483
 Alpha virt. eigenvalues --    0.59974   0.60697   0.61164   0.61510   0.61797
 Alpha virt. eigenvalues --    0.61968   0.62607   0.63044   0.63511   0.64088
 Alpha virt. eigenvalues --    0.64149   0.64637   0.65451   0.66309   0.66437
 Alpha virt. eigenvalues --    0.67048   0.67260   0.67409   0.68123   0.69104
 Alpha virt. eigenvalues --    0.69497   0.69915   0.71296   0.71472   0.71565
 Alpha virt. eigenvalues --    0.71919   0.72622   0.73437   0.73534   0.74276
 Alpha virt. eigenvalues --    0.74823   0.75580   0.75900   0.76103   0.76630
 Alpha virt. eigenvalues --    0.77368   0.78040   0.78480   0.78716   0.79289
 Alpha virt. eigenvalues --    0.79722   0.80440   0.80718   0.82322   0.83117
 Alpha virt. eigenvalues --    0.83534   0.84665   0.85183   0.85692   0.86590
 Alpha virt. eigenvalues --    0.87620   0.89153   0.89673   0.90820   0.91559
 Alpha virt. eigenvalues --    0.91921   0.94006   0.94318   0.94688   0.95319
 Alpha virt. eigenvalues --    0.95729   0.96541   0.96956   0.96998   0.97861
 Alpha virt. eigenvalues --    0.98660   0.99223   0.99414   1.00645   1.01430
 Alpha virt. eigenvalues --    1.02345   1.03345   1.03872   1.04399   1.05091
 Alpha virt. eigenvalues --    1.05686   1.06390   1.07299   1.07601   1.08521
 Alpha virt. eigenvalues --    1.08889   1.09704   1.10078   1.10634   1.12029
 Alpha virt. eigenvalues --    1.13332   1.13900   1.14616   1.15030   1.15310
 Alpha virt. eigenvalues --    1.16769   1.17747   1.18784   1.19681   1.20270
 Alpha virt. eigenvalues --    1.20618   1.21028   1.21613   1.22093   1.23430
 Alpha virt. eigenvalues --    1.25575   1.30733   1.31823   1.32246   1.34406
 Alpha virt. eigenvalues --    1.35112   1.36339   1.38236   1.39897   1.40228
 Alpha virt. eigenvalues --    1.41979   1.47779   1.48311   1.49498   1.51221
 Alpha virt. eigenvalues --    1.51608   1.52795   1.53737   1.55788   1.56238
 Alpha virt. eigenvalues --    1.57097   1.57686   1.58684   1.59666   1.60589
 Alpha virt. eigenvalues --    1.61628   1.61935   1.62528   1.62801   1.62885
 Alpha virt. eigenvalues --    1.63008   1.64283   1.64710   1.64914   1.65240
 Alpha virt. eigenvalues --    1.65708   1.66761   1.68021   1.68991   1.69291
 Alpha virt. eigenvalues --    1.70089   1.73236   1.75018   1.75182   1.75241
 Alpha virt. eigenvalues --    1.77398   1.78371   1.79200   1.79720   1.80538
 Alpha virt. eigenvalues --    1.80734   1.81306   1.82337   1.82675   1.83733
 Alpha virt. eigenvalues --    1.84654   1.84721   1.86602   1.87829   1.88726
 Alpha virt. eigenvalues --    1.90201   1.91068   1.93216   1.93918   1.95452
 Alpha virt. eigenvalues --    1.96861   1.97547   1.97877   2.00317   2.00619
 Alpha virt. eigenvalues --    2.00759   2.01616   2.01704   2.03403   2.03634
 Alpha virt. eigenvalues --    2.04663   2.04718   2.05504   2.06271   2.07040
 Alpha virt. eigenvalues --    2.08137   2.08999   2.11422   2.11659   2.12733
 Alpha virt. eigenvalues --    2.14240   2.14471   2.15536   2.17118   2.17452
 Alpha virt. eigenvalues --    2.17983   2.20027   2.20558   2.22913   2.24754
 Alpha virt. eigenvalues --    2.25007   2.25739   2.28617   2.31505   2.33592
 Alpha virt. eigenvalues --    2.35631   2.37055   2.37848   2.39865   2.41535
 Alpha virt. eigenvalues --    2.42650   2.42910   2.45311   2.46889   2.48032
 Alpha virt. eigenvalues --    2.49969   2.52582   2.54746   2.55142   2.55175
 Alpha virt. eigenvalues --    2.55448   2.56757   2.56939   2.57433   2.60524
 Alpha virt. eigenvalues --    2.62751   2.63535   2.67639   2.68108   2.69863
 Alpha virt. eigenvalues --    2.70237   2.72612   2.73806   2.74375   2.76566
 Alpha virt. eigenvalues --    2.77592   2.78204   2.78471   2.79699   2.80671
 Alpha virt. eigenvalues --    2.81226   2.81832   2.82375   2.83656   2.83752
 Alpha virt. eigenvalues --    2.84481   2.85348   2.85804   2.86339   2.86694
 Alpha virt. eigenvalues --    2.88362   2.89928   2.90273   2.91108   2.92020
 Alpha virt. eigenvalues --    2.92465   2.93589   2.94439   2.95465   2.96234
 Alpha virt. eigenvalues --    2.98000   2.98625   3.01013   3.01645   3.02652
 Alpha virt. eigenvalues --    3.03635   3.04602   3.06527   3.07191   3.08827
 Alpha virt. eigenvalues --    3.14655   3.17757   3.18750   3.19673   3.21112
 Alpha virt. eigenvalues --    3.21998   3.24167   3.26798   3.28690   3.30600
 Alpha virt. eigenvalues --    3.31145   3.33975   3.34539   3.38022   3.38283
 Alpha virt. eigenvalues --    3.41810   3.45417   3.46440   3.47404   3.50047
 Alpha virt. eigenvalues --    3.57024   3.59853   3.60817   3.62383   3.62927
 Alpha virt. eigenvalues --    3.64122   3.66110   3.68101   3.73440   3.76417
 Alpha virt. eigenvalues --    3.77442   3.77876   3.78320   3.78701   3.86046
 Alpha virt. eigenvalues --    3.88658   3.89124   3.92930   4.02075   4.05047
 Alpha virt. eigenvalues --    4.07790   4.09578   4.12496   4.13805   4.16229
 Alpha virt. eigenvalues --    4.26413   4.27720   4.29392   4.31108   4.37818
 Alpha virt. eigenvalues --    4.53116   4.76957   4.92507   4.93723   4.99952
 Alpha virt. eigenvalues --    5.15100   5.17681   5.18461   5.37990   5.65068
 Alpha virt. eigenvalues --    5.84426   5.96301  23.71290  23.79597  23.93928
 Alpha virt. eigenvalues --   24.01890  24.03307  24.03470  24.04783  24.07705
 Alpha virt. eigenvalues --   24.08182  24.08657  24.13601  24.14553  24.22758
 Alpha virt. eigenvalues --   24.25184  24.27970  24.30757  24.31400  35.74009
 Alpha virt. eigenvalues --   50.13862  50.17973
          Condensed to atoms (all electrons):
               1          2          3          4          5          6
     1  C    8.983093   0.586046   0.354294   1.456857  -1.742386  -0.293430
     2  C    0.586046  12.587633  -0.284259  -1.096831   0.312786   0.244831
     3  H    0.354294  -0.284259   0.538763   0.037718  -0.011959  -0.034829
     4  C    1.456857  -1.096831   0.037718  10.527800  -1.374970  -0.029485
     5  C   -1.742386   0.312786  -0.011959  -1.374970  10.459428  -0.257984
     6  N   -0.293430   0.244831  -0.034829  -0.029485  -0.257984   6.995818
     7  C   -1.009780  -2.095960   0.150358  -0.024722  -2.991643  -0.023774
     8  H    0.071549   0.186071  -0.038732   0.428043  -0.028284  -0.001200
     9  C   -1.279005  -2.568332  -0.030061  -0.953964   0.536575   0.065435
    10  H   -0.026331  -0.097649   0.000350  -0.012318   0.492171  -0.032985
    11  C   -0.136821  -0.119611  -0.005224  -0.044041   0.218510   0.310807
    12  C    0.134747  -0.224851   0.019598   0.000416  -0.184576   0.302357
    13  C   -0.378312  -0.074471   0.015179   1.292709   0.837749  -0.002707
    14  H    0.008469   0.034905   0.001658  -0.057489   0.003397  -0.001088
    15  H   -0.016796   0.018108  -0.001296  -0.007576   0.017666  -0.055561
    16  H    0.012010  -0.006150   0.002305   0.005606   0.026298  -0.045701
    17  H    0.002820  -0.028687   0.000172  -0.001004   0.011456  -0.056626
    18  H    0.029946   0.023057  -0.016041  -0.013566  -0.012692  -0.051634
    19  H    0.024986  -0.028941   0.008699   0.003441   0.001523  -0.047171
    20  H    0.019476  -0.002315  -0.011469  -0.007502  -0.001803  -0.058148
    21  C   -0.659030  -0.419121   0.044150  -0.802918   0.500128   0.004989
    22  H    0.011603   0.021870  -0.000870   0.059401   0.033093  -0.000767
    23  C    0.269997  -0.272442   0.016702  -1.679438  -0.417186   0.002729
    24  H   -0.180812  -0.060633   0.012428  -0.147020   0.055320  -0.000836
    25  C    0.032225  -0.079189   0.005105  -0.909374  -0.164496   0.000431
    26  O   -0.000324  -0.000373   0.000025   0.000063  -0.001716  -0.000002
    27  C    0.017062   0.001726  -0.000476  -0.019374  -0.027507   0.000010
    28  C    0.014380  -0.005896   0.002551  -0.179807   0.029324  -0.000022
    29  H    0.000202  -0.000596   0.000031  -0.008304  -0.000609   0.000002
    30  C    0.006992   0.000856  -0.000185   0.041029  -0.004332   0.000000
    31  O    0.000214  -0.000033  -0.000004   0.001601  -0.000261   0.000000
    32  C   -0.021536   0.001400  -0.000547   0.058544   0.011342  -0.000004
    33  H    0.015986   0.000919   0.000226  -0.014176  -0.003906   0.000038
    34  C   -0.000088  -0.000555   0.000208  -0.025019  -0.000150   0.000001
    35  H    0.000000   0.000006  -0.000001   0.000328  -0.000011   0.000000
    36  H   -0.000782  -0.000093  -0.000021   0.000424   0.000044   0.000000
    37  H    0.000017  -0.000007   0.000004  -0.000391   0.000000   0.000000
               7          8          9         10         11         12
     1  C   -1.009780   0.071549  -1.279005  -0.026331  -0.136821   0.134747
     2  C   -2.095960   0.186071  -2.568332  -0.097649  -0.119611  -0.224851
     3  H    0.150358  -0.038732  -0.030061   0.000350  -0.005224   0.019598
     4  C   -0.024722   0.428043  -0.953964  -0.012318  -0.044041   0.000416
     5  C   -2.991643  -0.028284   0.536575   0.492171   0.218510  -0.184576
     6  N   -0.023774  -0.001200   0.065435  -0.032985   0.310807   0.302357
     7  C   11.780607  -0.140061   0.193899  -0.024533  -0.143788   0.014193
     8  H   -0.140061   0.562258   0.039748   0.001310  -0.000106   0.002405
     9  C    0.193899   0.039748  10.534493   0.032705  -0.082075  -0.032533
    10  H   -0.024533   0.001310   0.032705   0.509683   0.013502  -0.005578
    11  C   -0.143788  -0.000106  -0.082075   0.013502   5.260359  -0.117405
    12  C    0.014193   0.002405  -0.032533  -0.005578  -0.117405   5.241956
    13  C   -1.697367  -0.017274  -0.245800  -0.000616   0.021242  -0.007429
    14  H   -0.073694  -0.004515   0.280673  -0.014059   0.002951   0.000374
    15  H   -0.001976   0.000125  -0.014579  -0.011838   0.425382  -0.002571
    16  H   -0.006647  -0.000493  -0.017653   0.006068   0.400876  -0.012453
    17  H    0.010428  -0.000186   0.003765  -0.007449   0.413730   0.001764
    18  H   -0.013967   0.003213  -0.006587  -0.000716  -0.003008   0.416674
    19  H    0.007190  -0.000328   0.010930   0.001472  -0.015823   0.402979
    20  H   -0.007036   0.001422  -0.002683  -0.000140   0.002881   0.417294
    21  C   -1.052330  -0.115495   0.342091  -0.015149  -0.008705   0.016425
    22  H   -0.153627   0.002122   0.041388   0.002237  -0.000517  -0.000312
    23  C    1.754492  -0.048033  -0.381600   0.001308  -0.002538   0.006626
    24  H    0.029704  -0.040296   0.047489  -0.000714   0.000195  -0.000319
    25  C    0.557641  -0.005634  -0.194245  -0.002201  -0.000894   0.002073
    26  O    0.020917   0.001149  -0.015582   0.000011   0.000005  -0.000001
    27  C    0.060774   0.010324  -0.053408  -0.000448  -0.000022   0.000064
    28  C    0.134372  -0.029376   0.011430   0.000652   0.000089  -0.000441
    29  H   -0.000186  -0.000382   0.001904   0.000004  -0.000006   0.000003
    30  C    0.007327   0.003573  -0.020502  -0.000014  -0.000002  -0.000001
    31  O   -0.000451   0.000248  -0.001228   0.000001   0.000000   0.000000
    32  C   -0.113992  -0.002935   0.044440   0.000004   0.000020  -0.000176
    33  H    0.016076  -0.008384  -0.006990   0.000020  -0.000020   0.000075
    34  C    0.033202  -0.001702  -0.002015   0.000006   0.000000   0.000007
    35  H   -0.000733   0.000004  -0.000009  -0.000001   0.000000   0.000000
    36  H   -0.002416   0.000120   0.000414  -0.000002   0.000000  -0.000002
    37  H    0.000498  -0.000020   0.000006   0.000000   0.000000   0.000000
              13         14         15         16         17         18
     1  C   -0.378312   0.008469  -0.016796   0.012010   0.002820   0.029946
     2  C   -0.074471   0.034905   0.018108  -0.006150  -0.028687   0.023057
     3  H    0.015179   0.001658  -0.001296   0.002305   0.000172  -0.016041
     4  C    1.292709  -0.057489  -0.007576   0.005606  -0.001004  -0.013566
     5  C    0.837749   0.003397   0.017666   0.026298   0.011456  -0.012692
     6  N   -0.002707  -0.001088  -0.055561  -0.045701  -0.056626  -0.051634
     7  C   -1.697367  -0.073694  -0.001976  -0.006647   0.010428  -0.013967
     8  H   -0.017274  -0.004515   0.000125  -0.000493  -0.000186   0.003213
     9  C   -0.245800   0.280673  -0.014579  -0.017653   0.003765  -0.006587
    10  H   -0.000616  -0.014059  -0.011838   0.006068  -0.007449  -0.000716
    11  C    0.021242   0.002951   0.425382   0.400876   0.413730  -0.003008
    12  C   -0.007429   0.000374  -0.002571  -0.012453   0.001764   0.416674
    13  C   12.395751   0.024608  -0.001606   0.002496  -0.001263  -0.001054
    14  H    0.024608   0.491890   0.000710  -0.000074   0.000690  -0.000218
    15  H   -0.001606   0.000710   0.561835  -0.019039  -0.062383   0.002641
    16  H    0.002496  -0.000074  -0.019039   0.507092  -0.022207  -0.002682
    17  H   -0.001263   0.000690  -0.062383  -0.022207   0.553014  -0.002352
    18  H   -0.001054  -0.000218   0.002641  -0.002682  -0.002352   0.564345
    19  H   -0.001173  -0.000077  -0.002185   0.013992  -0.001898  -0.021742
    20  H    0.000381  -0.000137  -0.002319  -0.001647   0.001780  -0.063145
    21  C    5.415919   0.032212   0.000377  -0.000399   0.000448  -0.001908
    22  H    0.416414  -0.008018  -0.000030   0.000006  -0.000171   0.000134
    23  C   -4.464572   0.030939  -0.000045  -0.000284   0.000227  -0.000667
    24  H    0.073900   0.003715  -0.000058   0.000072   0.000048  -0.000522
    25  C   -4.877956   0.025293   0.000042  -0.000063   0.000094  -0.000215
    26  O    0.003909   0.001109  -0.000001   0.000000  -0.000001   0.000000
    27  C   -1.246933   0.007472   0.000006  -0.000003   0.000008  -0.000004
    28  C   -1.764108  -0.004589  -0.000003   0.000011  -0.000021   0.000051
    29  H   -0.035567   0.000144   0.000000   0.000000   0.000000  -0.000001
    30  C   -0.151844   0.000266   0.000000   0.000000   0.000000   0.000001
    31  O    0.045312   0.000017   0.000000   0.000000   0.000000   0.000000
    32  C    0.642759  -0.000857   0.000001   0.000003  -0.000003   0.000034
    33  H   -0.141773   0.000115   0.000002  -0.000004   0.000001   0.000012
    34  C   -0.270812   0.000133   0.000000   0.000000   0.000000  -0.000001
    35  H    0.002223   0.000010   0.000000   0.000000   0.000000   0.000000
    36  H    0.009755   0.000003   0.000000   0.000000   0.000000   0.000000
    37  H   -0.003435   0.000001   0.000000   0.000000   0.000000   0.000000
              19         20         21         22         23         24
     1  C    0.024986   0.019476  -0.659030   0.011603   0.269997  -0.180812
     2  C   -0.028941  -0.002315  -0.419121   0.021870  -0.272442  -0.060633
     3  H    0.008699  -0.011469   0.044150  -0.000870   0.016702   0.012428
     4  C    0.003441  -0.007502  -0.802918   0.059401  -1.679438  -0.147020
     5  C    0.001523  -0.001803   0.500128   0.033093  -0.417186   0.055320
     6  N   -0.047171  -0.058148   0.004989  -0.000767   0.002729  -0.000836
     7  C    0.007190  -0.007036  -1.052330  -0.153627   1.754492   0.029704
     8  H   -0.000328   0.001422  -0.115495   0.002122  -0.048033  -0.040296
     9  C    0.010930  -0.002683   0.342091   0.041388  -0.381600   0.047489
    10  H    0.001472  -0.000140  -0.015149   0.002237   0.001308  -0.000714
    11  C   -0.015823   0.002881  -0.008705  -0.000517  -0.002538   0.000195
    12  C    0.402979   0.417294   0.016425  -0.000312   0.006626  -0.000319
    13  C   -0.001173   0.000381   5.415919   0.416414  -4.464572   0.073900
    14  H   -0.000077  -0.000137   0.032212  -0.008018   0.030939   0.003715
    15  H   -0.002185  -0.002319   0.000377  -0.000030  -0.000045  -0.000058
    16  H    0.013992  -0.001647  -0.000399   0.000006  -0.000284   0.000072
    17  H   -0.001898   0.001780   0.000448  -0.000171   0.000227   0.000048
    18  H   -0.021742  -0.063145  -0.001908   0.000134  -0.000667  -0.000522
    19  H    0.508200  -0.022189   0.001210  -0.000042   0.000471   0.000010
    20  H   -0.022189   0.558580  -0.001516   0.000068  -0.000825  -0.000212
    21  C    0.001210  -0.001516  16.247304   0.077218   0.834466   0.768376
    22  H   -0.000042   0.000068   0.077218   0.465888   0.009501   0.000323
    23  C    0.000471  -0.000825   0.834466   0.009501  19.130775  -0.059335
    24  H    0.000010  -0.000212   0.768376   0.000323  -0.059335   0.860869
    25  C    0.000121  -0.000193  -8.392246  -0.181856  -1.110555  -0.037709
    26  O    0.000000   0.000000  -0.378643  -0.010972   0.872128   0.005021
    27  C    0.000003  -0.000002  -3.321967  -0.067417  -4.735675  -0.003514
    28  C   -0.000026  -0.000027  -3.022011   0.025614  -1.636811  -0.108491
    29  H    0.000000  -0.000001  -0.014182  -0.000513   0.064049   0.002252
    30  C    0.000000   0.000001  -0.391861   0.002197  -1.673445  -0.043756
    31  O    0.000000   0.000000  -0.036350  -0.000695  -0.040120  -0.001782
    32  C   -0.000010   0.000014   1.064341   0.011431   1.402121   0.032468
    33  H    0.000004  -0.000007  -0.176715   0.000941  -0.021649  -0.027495
    34  C    0.000000  -0.000003  -0.750472  -0.003982  -1.567551  -0.012087
    35  H    0.000000   0.000000   0.002489  -0.000118  -0.010855   0.000136
    36  H    0.000000   0.000001   0.016007  -0.000143   0.016943   0.004811
    37  H    0.000000   0.000000  -0.010790  -0.000027  -0.012468  -0.000992
              25         26         27         28         29         30
     1  C    0.032225  -0.000324   0.017062   0.014380   0.000202   0.006992
     2  C   -0.079189  -0.000373   0.001726  -0.005896  -0.000596   0.000856
     3  H    0.005105   0.000025  -0.000476   0.002551   0.000031  -0.000185
     4  C   -0.909374   0.000063  -0.019374  -0.179807  -0.008304   0.041029
     5  C   -0.164496  -0.001716  -0.027507   0.029324  -0.000609  -0.004332
     6  N    0.000431  -0.000002   0.000010  -0.000022   0.000002   0.000000
     7  C    0.557641   0.020917   0.060774   0.134372  -0.000186   0.007327
     8  H   -0.005634   0.001149   0.010324  -0.029376  -0.000382   0.003573
     9  C   -0.194245  -0.015582  -0.053408   0.011430   0.001904  -0.020502
    10  H   -0.002201   0.000011  -0.000448   0.000652   0.000004  -0.000014
    11  C   -0.000894   0.000005  -0.000022   0.000089  -0.000006  -0.000002
    12  C    0.002073  -0.000001   0.000064  -0.000441   0.000003  -0.000001
    13  C   -4.877956   0.003909  -1.246933  -1.764108  -0.035567  -0.151844
    14  H    0.025293   0.001109   0.007472  -0.004589   0.000144   0.000266
    15  H    0.000042  -0.000001   0.000006  -0.000003   0.000000   0.000000
    16  H   -0.000063   0.000000  -0.000003   0.000011   0.000000   0.000000
    17  H    0.000094  -0.000001   0.000008  -0.000021   0.000000   0.000000
    18  H   -0.000215   0.000000  -0.000004   0.000051  -0.000001   0.000001
    19  H    0.000121   0.000000   0.000003  -0.000026   0.000000   0.000000
    20  H   -0.000193   0.000000  -0.000002  -0.000027  -0.000001   0.000001
    21  C   -8.392246  -0.378643  -3.321967  -3.022011  -0.014182  -0.391861
    22  H   -0.181856  -0.010972  -0.067417   0.025614  -0.000513   0.002197
    23  C   -1.110555   0.872128  -4.735675  -1.636811   0.064049  -1.673445
    24  H   -0.037709   0.005021  -0.003514  -0.108491   0.002252  -0.043756
    25  C   22.757185  -0.020575   2.407781  -1.429568  -0.084424  -2.027223
    26  O   -0.020575   8.112647  -0.011672  -0.246927   0.087052  -0.094239
    27  C    2.407781  -0.011672  17.790982  -3.817315   0.005838  -1.587592
    28  C   -1.429568  -0.246927  -3.817315  17.838684   0.041844   2.526838
    29  H   -0.084424   0.087052   0.005838   0.041844   0.272827   0.025676
    30  C   -2.027223  -0.094239  -1.587592   2.526838   0.025676   9.827478
    31  O    0.047508   0.024363   0.329184  -0.039624   0.219394  -0.348793
    32  C   -2.458629   0.009060   0.534602  -3.327292   0.004262  -0.835148
    33  H   -0.006556  -0.006166  -0.008651   0.847602   0.001044   0.089740
    34  C    0.332415  -0.019371  -0.337673   1.539916   0.002295   0.650733
    35  H   -0.081733   0.000893  -0.172057   0.033963   0.001152   0.586284
    36  H    0.032000   0.000861   0.042351  -0.132685   0.000283   0.005754
    37  H    0.090485  -0.000224   0.010813  -0.028410  -0.000108  -0.074762
              31         32         33         34         35         36
     1  C    0.000214  -0.021536   0.015986  -0.000088   0.000000  -0.000782
     2  C   -0.000033   0.001400   0.000919  -0.000555   0.000006  -0.000093
     3  H   -0.000004  -0.000547   0.000226   0.000208  -0.000001  -0.000021
     4  C    0.001601   0.058544  -0.014176  -0.025019   0.000328   0.000424
     5  C   -0.000261   0.011342  -0.003906  -0.000150  -0.000011   0.000044
     6  N    0.000000  -0.000004   0.000038   0.000001   0.000000   0.000000
     7  C   -0.000451  -0.113992   0.016076   0.033202  -0.000733  -0.002416
     8  H    0.000248  -0.002935  -0.008384  -0.001702   0.000004   0.000120
     9  C   -0.001228   0.044440  -0.006990  -0.002015  -0.000009   0.000414
    10  H    0.000001   0.000004   0.000020   0.000006  -0.000001  -0.000002
    11  C    0.000000   0.000020  -0.000020   0.000000   0.000000   0.000000
    12  C    0.000000  -0.000176   0.000075   0.000007   0.000000  -0.000002
    13  C    0.045312   0.642759  -0.141773  -0.270812   0.002223   0.009755
    14  H    0.000017  -0.000857   0.000115   0.000133   0.000010   0.000003
    15  H    0.000000   0.000001   0.000002   0.000000   0.000000   0.000000
    16  H    0.000000   0.000003  -0.000004   0.000000   0.000000   0.000000
    17  H    0.000000  -0.000003   0.000001   0.000000   0.000000   0.000000
    18  H    0.000000   0.000034   0.000012  -0.000001   0.000000   0.000000
    19  H    0.000000  -0.000010   0.000004   0.000000   0.000000   0.000000
    20  H    0.000000   0.000014  -0.000007  -0.000003   0.000000   0.000001
    21  C   -0.036350   1.064341  -0.176715  -0.750472   0.002489   0.016007
    22  H   -0.000695   0.011431   0.000941  -0.003982  -0.000118  -0.000143
    23  C   -0.040120   1.402121  -0.021649  -1.567551  -0.010855   0.016943
    24  H   -0.001782   0.032468  -0.027495  -0.012087   0.000136   0.004811
    25  C    0.047508  -2.458629  -0.006556   0.332415  -0.081733   0.032000
    26  O    0.024363   0.009060  -0.006166  -0.019371   0.000893   0.000861
    27  C    0.329184   0.534602  -0.008651  -0.337673  -0.172057   0.042351
    28  C   -0.039624  -3.327292   0.847602   1.539916   0.033963  -0.132685
    29  H    0.219394   0.004262   0.001044   0.002295   0.001152   0.000283
    30  C   -0.348793  -0.835148   0.089740   0.650733   0.586284   0.005754
    31  O    8.162736   0.004627  -0.001914   0.008349  -0.023215   0.000254
    32  C    0.004627   9.932304  -0.290749  -0.619451  -0.006725   0.429294
    33  H   -0.001914  -0.290749   0.588839   0.054002   0.000266  -0.022181
    34  C    0.008349  -0.619451   0.054002   7.068638  -0.016046  -0.096827
    35  H   -0.023215  -0.006725   0.000266  -0.016046   0.456326   0.001126
    36  H    0.000254   0.429294  -0.022181  -0.096827   0.001126   0.483536
    37  H    0.000801  -0.066378   0.002550   0.429705  -0.011134  -0.011422
              37
     1  C    0.000017
     2  C   -0.000007
     3  H    0.000004
     4  C   -0.000391
     5  C    0.000000
     6  N    0.000000
     7  C    0.000498
     8  H   -0.000020
     9  C    0.000006
    10  H    0.000000
    11  C    0.000000
    12  C    0.000000
    13  C   -0.003435
    14  H    0.000001
    15  H    0.000000
    16  H    0.000000
    17  H    0.000000
    18  H    0.000000
    19  H    0.000000
    20  H    0.000000
    21  C   -0.010790
    22  H   -0.000027
    23  C   -0.012468
    24  H   -0.000992
    25  C    0.090485
    26  O   -0.000224
    27  C    0.010813
    28  C   -0.028410
    29  H   -0.000108
    30  C   -0.074762
    31  O    0.000801
    32  C   -0.066378
    33  H    0.002550
    34  C    0.429705
    35  H   -0.011134
    36  H   -0.011422
    37  H    0.478441
 Mulliken charges:
               1
     1  C   -0.307537
     2  C   -0.553221
     3  H    0.225451
     4  C   -0.504691
     5  C   -0.320339
     6  N    0.066505
     7  C    0.807006
     8  H    0.169751
     9  C   -0.278534
    10  H    0.191238
    11  C   -0.389945
    12  C   -0.391383
    13  C    0.185762
    14  H    0.213059
    15  H    0.172965
    16  H    0.158667
    17  H    0.183805
    18  H    0.172613
    19  H    0.156371
    20  H    0.181420
    21  C    0.203658
    22  H    0.248628
    23  C   -0.277381
    24  H   -0.170554
    25  C    1.775132
    26  O   -0.332426
    27  C    0.192709
    28  C   -1.273873
    29  H    0.414620
    30  C   -0.521047
    31  O   -0.350140
    32  C   -0.438639
    33  H    0.118879
    34  C   -0.395803
    35  H    0.237432
    36  H    0.222595
    37  H    0.207247
 Sum of Mulliken charges =   0.00000
 Mulliken charges with hydrogens summed into heavy atoms:
               1
     1  C   -0.082086
     2  C   -0.553221
     4  C   -0.334940
     5  C   -0.129101
     6  N    0.066505
     7  C    0.807006
     9  C   -0.065475
    11  C    0.125492
    12  C    0.119021
    13  C    0.434390
    21  C    0.033104
    23  C   -0.277381
    25  C    1.775132
    26  O   -0.332426
    27  C    0.192709
    28  C   -1.154994
    30  C   -0.283614
    31  O    0.064480
    32  C   -0.216044
    34  C   -0.188556
 Electronic spatial extent (au):  <R**2>=          24583.6579
 Charge=              0.0000 electrons
 Dipole moment (field-independent basis, Debye):
    X=             -7.3881    Y=              1.5036    Z=              6.0777  Tot=              9.6842
 Quadrupole moment (field-independent basis, Debye-Ang):
   XX=           -129.9512   YY=           -128.5765   ZZ=           -153.1045
   XY=             42.7468   XZ=             33.6480   YZ=            -22.5898
 Traceless Quadrupole moment (field-independent basis, Debye-Ang):
   XX=              7.2596   YY=              8.6342   ZZ=            -15.8938
   XY=             42.7468   XZ=             33.6480   YZ=            -22.5898
 Octapole moment (field-independent basis, Debye-Ang**2):
  XXX=          -1126.2149  YYY=           1345.9446  ZZZ=           1096.5548  XYY=           -563.1979
  XXY=            570.0690  XXZ=            488.0966  XZZ=           -559.1310  YZZ=            570.9450
  YYZ=            385.3246  XYZ=           -166.6144
 Hexadecapole moment (field-independent basis, Debye-Ang**3):
 XXXX=         -16577.6972 YYYY=         -10492.8316 ZZZZ=          -7813.5517 XXXY=           4297.8133
 XXXZ=           5305.6582 YYYX=           4097.2972 YYYZ=          -3646.6899 ZZZX=           5705.0918
 ZZZY=          -4168.0001 XXYY=          -5408.4047 XXZZ=          -5237.4018 YYZZ=          -3394.3795
 XXYZ=          -2096.1815 YYXZ=           2312.1868 ZZXY=           1983.0826
 N-N= 1.358388067623D+03 E-N=-4.725819820665D+03  KE= 8.591566877657D+02
 Leave Link  601 at Mon Jan 29 14:10:17 2018, MaxMem=  1879048192 cpu:         0.2
 (Enter /share/apps/gaussian/g09_D01/g09/l9999.exe)
 1\1\GINC-NXN34\SP\RwB97XD TD-FC\6-311++G(d,p)\C17H17N1O2\BTX008\29-Jan
 -2018\0\\#p wb97xd 6-311++G** td=(nstates=4) nosymm\\Title\\0,1\C,0,-0
 .045604,-3.212643,-0.673042\C,0,-1.163557,-4.037551,-0.999057\H,0,-0.1
 21291,-2.475288,0.121883\C,0,1.146608,-3.335524,-1.348586\C,0,-0.99793
 1,-4.974953,-2.055672\N,0,-2.337452,-3.93316,-0.324579\C,0,1.320601,-4
 .270503,-2.399224\H,0,1.971105,-2.682196,-1.060472\C,0,0.202155,-5.074
 774,-2.725295\H,0,-1.826104,-5.611893,-2.356233\C,0,-3.451039,-4.81758
 8,-0.638286\C,0,-2.482782,-2.951131,0.738607\C,0,2.5213,-4.396929,-3.1
 64451\H,0,0.299534,-5.792287,-3.54133\H,0,-3.150286,-5.872565,-0.54964
 7\H,0,-4.268925,-4.626441,0.063239\H,0,-3.818958,-4.648925,-1.662177\H
 ,0,-2.290162,-1.933406,0.365237\H,0,-3.502453,-2.991283,1.132588\H,0,-
 1.783201,-3.152381,1.563457\C,0,3.704177,-3.730044,-2.976341\H,0,2.478
 43,-5.091951,-4.010014\C,0,4.824246,-3.904072,-3.862622\H,0,3.810173,-
 3.042685,-2.139497\C,0,6.116034,-3.241308,-3.594826\O,0,4.72679,-4.644
 034,-4.908669\C,0,7.196441,-3.444502,-4.505463\C,0,6.35306,-2.418884,-
 2.472996\H,0,6.047681,-4.528914,-5.530262\C,0,8.44931,-2.862065,-4.256
 098\O,0,7.039043,-4.198267,-5.611204\C,0,7.588797,-1.834009,-2.241935\
 H,0,5.552651,-2.221827,-1.761605\C,0,8.641937,-2.065551,-3.137064\H,0,
 9.257308,-3.069135,-4.95777\H,0,7.737617,-1.196134,-1.371176\H,0,9.619
 574,-1.619592,-2.947297\\Version=ES64L-G09RevD.01\HF=-863.1625465\RMSD
 =8.612e-09\PG=C01 [X(C17H17N1O2)]\\@


 IN-LAWS ARE LIKE SEEDS. YOU DON'T NEED THEM
 BUT THEY COME WITH THE TOMATO.
 Job cpu time:       0 days  2 hours  8 minutes 15.2 seconds.
 File lengths (MBytes):  RWF=    454 Int=      0 D2E=      0 Chk=     52 Scr=      1
 Normal termination of Gaussian 09 at Mon Jan 29 14:10:18 2018.
