 Entering Gaussian System, Link 0=g09
 Input=2hc_1_rel-mega_dimer_0_mon-0.com
 Output=2hc_1_rel-mega_dimer_0_mon-0.log
 Initial command:
 /share/apps/gaussian/g09_D01/g09/l1.exe "/tmp/385487.1.all.q/Gau-29195.inp" -scrdir="/tmp/385487.1.all.q/"
 Default is to use a total of   4 processors:
                                4 via shared-memory
                                1 via Linda
 Entering Link 1 = /share/apps/gaussian/g09_D01/g09/l1.exe PID=     29196.
  
 Copyright (c) 1988,1990,1992,1993,1995,1998,2003,2009,2013,
            Gaussian, Inc.  All Rights Reserved.
  
 This is part of the Gaussian(R) 09 program.  It is based on
 the Gaussian(R) 03 system (copyright 2003, Gaussian, Inc.),
 the Gaussian(R) 98 system (copyright 1998, Gaussian, Inc.),
 the Gaussian(R) 94 system (copyright 1995, Gaussian, Inc.),
 the Gaussian 92(TM) system (copyright 1992, Gaussian, Inc.),
 the Gaussian 90(TM) system (copyright 1990, Gaussian, Inc.),
 the Gaussian 88(TM) system (copyright 1988, Gaussian, Inc.),
 the Gaussian 86(TM) system (copyright 1986, Carnegie Mellon
 University), and the Gaussian 82(TM) system (copyright 1983,
 Carnegie Mellon University). Gaussian is a federally registered
 trademark of Gaussian, Inc.
  
 This software contains proprietary and confidential information,
 including trade secrets, belonging to Gaussian, Inc.
  
 This software is provided under written license and may be
 used, copied, transmitted, or stored only in accord with that
 written license.
  
 The following legend is applicable only to US Government
 contracts under FAR:
  
                    RESTRICTED RIGHTS LEGEND
  
 Use, reproduction and disclosure by the US Government is
 subject to restrictions as set forth in subparagraphs (a)
 and (c) of the Commercial Computer Software - Restricted
 Rights clause in FAR 52.227-19.
  
 Gaussian, Inc.
 340 Quinnipiac St., Bldg. 40, Wallingford CT 06492
  
  
 ---------------------------------------------------------------
 Warning -- This program may not be used in any manner that
 competes with the business of Gaussian, Inc. or will provide
 assistance to any competitor of Gaussian, Inc.  The licensee
 of this program is prohibited from giving any competitor of
 Gaussian, Inc. access to this program.  By using this program,
 the user acknowledges that Gaussian, Inc. is engaged in the
 business of creating and licensing software in the field of
 computational chemistry and represents and warrants to the
 licensee that it is not a competitor of Gaussian, Inc. and that
 it will not use this program in any manner prohibited above.
 ---------------------------------------------------------------
  

 Cite this work as:
 Gaussian 09, Revision D.01,
 M. J. Frisch, G. W. Trucks, H. B. Schlegel, G. E. Scuseria, 
 M. A. Robb, J. R. Cheeseman, G. Scalmani, V. Barone, B. Mennucci, 
 G. A. Petersson, H. Nakatsuji, M. Caricato, X. Li, H. P. Hratchian, 
 A. F. Izmaylov, J. Bloino, G. Zheng, J. L. Sonnenberg, M. Hada, 
 M. Ehara, K. Toyota, R. Fukuda, J. Hasegawa, M. Ishida, T. Nakajima, 
 Y. Honda, O. Kitao, H. Nakai, T. Vreven, J. A. Montgomery, Jr., 
 J. E. Peralta, F. Ogliaro, M. Bearpark, J. J. Heyd, E. Brothers, 
 K. N. Kudin, V. N. Staroverov, T. Keith, R. Kobayashi, J. Normand, 
 K. Raghavachari, A. Rendell, J. C. Burant, S. S. Iyengar, J. Tomasi, 
 M. Cossi, N. Rega, J. M. Millam, M. Klene, J. E. Knox, J. B. Cross, 
 V. Bakken, C. Adamo, J. Jaramillo, R. Gomperts, R. E. Stratmann, 
 O. Yazyev, A. J. Austin, R. Cammi, C. Pomelli, J. W. Ochterski, 
 R. L. Martin, K. Morokuma, V. G. Zakrzewski, G. A. Voth, 
 P. Salvador, J. J. Dannenberg, S. Dapprich, A. D. Daniels, 
 O. Farkas, J. B. Foresman, J. V. Ortiz, J. Cioslowski, 
 and D. J. Fox, Gaussian, Inc., Wallingford CT, 2013.
 
 ******************************************
 Gaussian 09:  ES64L-G09RevD.01 24-Apr-2013
                 9-Aug-2018 
 ******************************************
 %chk=2hc_1_rel-mega_dimer_0_mon-0.chk
 %nproc=2
 Will use up to    2 processors via shared memory.
 %mem=14GB
 ----------------------------------------------------------------------
 #p wb97xd 6-31++G** td=(nstates=1) nosymm Pop=NTO Density=(Transition=
 1)
 ----------------------------------------------------------------------
 1/38=1/1;
 2/12=2,15=1,17=6,18=5,40=1/2;
 3/5=1,6=6,7=1111,11=9,16=1,25=1,30=1,74=-58/1,2,8,3;
 4//1;
 5/5=2,38=5/2;
 8/6=1,10=2,108=1/1;
 9/41=1,42=1,70=2/14;
 6/7=2,8=2,9=2,10=2,29=1,89=1/1;
 99/5=1,9=1/99;
 Leave Link    1 at Thu Aug  9 19:14:32 2018, MaxMem=  1879048192 cpu:         0.2
 (Enter /share/apps/gaussian/g09_D01/g09/l101.exe)
 -----
 Title
 -----
 Symbolic Z-matrix:
 Charge =  0 Multiplicity = 1
 C                    -0.0456   -3.21264  -0.67304 
 C                    -1.16356  -4.03755  -0.99906 
 H                    -0.12129  -2.47529   0.12188 
 C                     1.14661  -3.33552  -1.34859 
 C                    -0.99793  -4.97495  -2.05567 
 N                    -2.33745  -3.93316  -0.32458 
 C                     1.3206   -4.2705   -2.39922 
 H                     1.97111  -2.6822   -1.06047 
 C                     0.20216  -5.07477  -2.7253 
 H                    -1.8261   -5.61189  -2.35623 
 C                    -3.45104  -4.81759  -0.63829 
 C                    -2.48278  -2.95113   0.73861 
 C                     2.5213   -4.39693  -3.16445 
 H                     0.29953  -5.79229  -3.54133 
 H                    -3.15029  -5.87257  -0.54965 
 H                    -4.26893  -4.62644   0.06324 
 H                    -3.81896  -4.64893  -1.66218 
 H                    -2.29016  -1.93341   0.36524 
 H                    -3.50245  -2.99128   1.13259 
 H                    -1.7832   -3.15238   1.56346 
 C                     3.70418  -3.73004  -2.97634 
 H                     2.47843  -5.09195  -4.01001 
 C                     4.82425  -3.90407  -3.86262 
 H                     3.81017  -3.04269  -2.1395 
 C                     6.11603  -3.24131  -3.59483 
 O                     4.72679  -4.64403  -4.90867 
 C                     7.19644  -3.4445   -4.50546 
 C                     6.35306  -2.41888  -2.473 
 H                     6.04768  -4.52891  -5.53026 
 C                     8.44931  -2.86207  -4.2561 
 O                     7.03904  -4.19827  -5.6112 
 C                     7.5888   -1.83401  -2.24194 
 H                     5.55265  -2.22183  -1.76161 
 C                     8.64194  -2.06555  -3.13706 
 H                     9.25731  -3.06914  -4.95777 
 H                     7.73762  -1.19613  -1.37118 
 H                     9.61957  -1.61959  -2.9473 
 
 NAtoms=     37 NQM=       37 NQMF=       0 NMMI=      0 NMMIF=      0
                NMic=       0 NMicF=      0.
                    Isotopes and Nuclear Properties:
 (Nuclear quadrupole moments (NQMom) in fm**2, nuclear magnetic moments (NMagM)
  in nuclear magnetons)

  Atom         1           2           3           4           5           6           7           8           9          10
 IAtWgt=          12          12           1          12          12          14          12           1          12           1
 AtmWgt=  12.0000000  12.0000000   1.0078250  12.0000000  12.0000000  14.0030740  12.0000000   1.0078250  12.0000000   1.0078250
 NucSpn=           0           0           1           0           0           2           0           1           0           1
 AtZEff=   0.0000000   0.0000000   0.0000000   0.0000000   0.0000000   0.0000000   0.0000000   0.0000000   0.0000000   0.0000000
 NQMom=    0.0000000   0.0000000   0.0000000   0.0000000   0.0000000   2.0440000   0.0000000   0.0000000   0.0000000   0.0000000
 NMagM=    0.0000000   0.0000000   2.7928460   0.0000000   0.0000000   0.4037610   0.0000000   2.7928460   0.0000000   2.7928460
 AtZNuc=   6.0000000   6.0000000   1.0000000   6.0000000   6.0000000   7.0000000   6.0000000   1.0000000   6.0000000   1.0000000

  Atom        11          12          13          14          15          16          17          18          19          20
 IAtWgt=          12          12          12           1           1           1           1           1           1           1
 AtmWgt=  12.0000000  12.0000000  12.0000000   1.0078250   1.0078250   1.0078250   1.0078250   1.0078250   1.0078250   1.0078250
 NucSpn=           0           0           0           1           1           1           1           1           1           1
 AtZEff=   0.0000000   0.0000000   0.0000000   0.0000000   0.0000000   0.0000000   0.0000000   0.0000000   0.0000000   0.0000000
 NQMom=    0.0000000   0.0000000   0.0000000   0.0000000   0.0000000   0.0000000   0.0000000   0.0000000   0.0000000   0.0000000
 NMagM=    0.0000000   0.0000000   0.0000000   2.7928460   2.7928460   2.7928460   2.7928460   2.7928460   2.7928460   2.7928460
 AtZNuc=   6.0000000   6.0000000   6.0000000   1.0000000   1.0000000   1.0000000   1.0000000   1.0000000   1.0000000   1.0000000

  Atom        21          22          23          24          25          26          27          28          29          30
 IAtWgt=          12           1          12           1          12          16          12          12           1          12
 AtmWgt=  12.0000000   1.0078250  12.0000000   1.0078250  12.0000000  15.9949146  12.0000000  12.0000000   1.0078250  12.0000000
 NucSpn=           0           1           0           1           0           0           0           0           1           0
 AtZEff=   0.0000000   0.0000000   0.0000000   0.0000000   0.0000000   0.0000000   0.0000000   0.0000000   0.0000000   0.0000000
 NQMom=    0.0000000   0.0000000   0.0000000   0.0000000   0.0000000   0.0000000   0.0000000   0.0000000   0.0000000   0.0000000
 NMagM=    0.0000000   2.7928460   0.0000000   2.7928460   0.0000000   0.0000000   0.0000000   0.0000000   2.7928460   0.0000000
 AtZNuc=   6.0000000   1.0000000   6.0000000   1.0000000   6.0000000   8.0000000   6.0000000   6.0000000   1.0000000   6.0000000

  Atom        31          32          33          34          35          36          37
 IAtWgt=          16          12           1          12           1           1           1
 AtmWgt=  15.9949146  12.0000000   1.0078250  12.0000000   1.0078250   1.0078250   1.0078250
 NucSpn=           0           0           1           0           1           1           1
 AtZEff=   0.0000000   0.0000000   0.0000000   0.0000000   0.0000000   0.0000000   0.0000000
 NQMom=    0.0000000   0.0000000   0.0000000   0.0000000   0.0000000   0.0000000   0.0000000
 NMagM=    0.0000000   0.0000000   2.7928460   0.0000000   2.7928460   2.7928460   2.7928460
 AtZNuc=   8.0000000   6.0000000   1.0000000   6.0000000   1.0000000   1.0000000   1.0000000
 Leave Link  101 at Thu Aug  9 19:14:32 2018, MaxMem=  1879048192 cpu:         0.2
 (Enter /share/apps/gaussian/g09_D01/g09/l202.exe)
                          Input orientation:                          
 ---------------------------------------------------------------------
 Center     Atomic      Atomic             Coordinates (Angstroms)
 Number     Number       Type             X           Y           Z
 ---------------------------------------------------------------------
      1          6           0       -0.045604   -3.212643   -0.673042
      2          6           0       -1.163557   -4.037551   -0.999057
      3          1           0       -0.121291   -2.475288    0.121883
      4          6           0        1.146608   -3.335524   -1.348586
      5          6           0       -0.997931   -4.974953   -2.055672
      6          7           0       -2.337452   -3.933160   -0.324579
      7          6           0        1.320601   -4.270503   -2.399224
      8          1           0        1.971105   -2.682196   -1.060472
      9          6           0        0.202155   -5.074774   -2.725295
     10          1           0       -1.826104   -5.611893   -2.356233
     11          6           0       -3.451039   -4.817588   -0.638286
     12          6           0       -2.482782   -2.951131    0.738607
     13          6           0        2.521300   -4.396929   -3.164451
     14          1           0        0.299534   -5.792287   -3.541330
     15          1           0       -3.150286   -5.872565   -0.549647
     16          1           0       -4.268925   -4.626441    0.063239
     17          1           0       -3.818958   -4.648925   -1.662177
     18          1           0       -2.290162   -1.933406    0.365237
     19          1           0       -3.502453   -2.991283    1.132588
     20          1           0       -1.783201   -3.152381    1.563457
     21          6           0        3.704177   -3.730044   -2.976341
     22          1           0        2.478430   -5.091951   -4.010014
     23          6           0        4.824246   -3.904072   -3.862622
     24          1           0        3.810173   -3.042685   -2.139497
     25          6           0        6.116034   -3.241308   -3.594826
     26          8           0        4.726790   -4.644034   -4.908669
     27          6           0        7.196441   -3.444502   -4.505463
     28          6           0        6.353060   -2.418884   -2.472996
     29          1           0        6.047681   -4.528914   -5.530262
     30          6           0        8.449310   -2.862065   -4.256098
     31          8           0        7.039043   -4.198267   -5.611204
     32          6           0        7.588797   -1.834009   -2.241935
     33          1           0        5.552651   -2.221827   -1.761605
     34          6           0        8.641937   -2.065551   -3.137064
     35          1           0        9.257308   -3.069135   -4.957770
     36          1           0        7.737617   -1.196134   -1.371176
     37          1           0        9.619574   -1.619592   -2.947297
 ---------------------------------------------------------------------
                    Distance matrix (angstroms):
                    1          2          3          4          5
     1  C    0.000000
     2  C    1.427087   0.000000
     3  H    1.086889   2.187119   0.000000
     4  C    1.375801   2.439646   2.123641   0.000000
     5  C    2.433994   1.422178   3.429077   2.790474   0.000000
     6  N    2.427579   1.357883   2.689998   3.680276   2.424115
     7  C    2.442394   2.861079   3.414356   1.417145   2.447421
     8  H    2.120988   3.415679   2.412239   1.090707   3.881022
     9  C    2.782204   2.433290   3.868897   2.410873   1.377884
    10  H    3.429244   2.181616   4.345772   3.877399   1.087152
    11  C    3.764843   2.443601   4.141431   4.882561   2.837514
    12  C    2.828600   2.437240   2.486647   4.204355   3.756146
    13  C    3.768109   4.289086   4.634219   2.512713   3.734768
    14  H    3.873081   3.418024   4.959708   3.400198   2.135095
    15  H    4.090166   2.741594   4.600788   5.053531   2.776049
    16  H    4.514131   3.334453   4.672662   5.743493   3.912882
    17  H    4.156861   2.804400   4.645461   5.145892   2.866937
    18  H    2.784333   2.749175   2.248746   4.088339   4.096544
    19  H    3.906290   3.333020   3.566515   5.280956   4.513599
    20  H    2.832808   2.781000   2.301855   4.134890   4.127531
    21  C    4.430998   5.262988   5.080119   3.057187   4.950480
    22  H    4.586712   4.841662   5.538777   3.455718   3.989765
    23  C    5.862332   6.638645   6.509688   4.490951   6.189475
    24  H    4.128728   5.198880   4.570797   2.793899   5.182524
    25  C    6.819342   7.769457   7.301023   5.454325   7.482180
    26  O    6.539508   7.095708   7.315313   5.215754   6.404805
    27  C    8.196855   9.084941   8.712113   6.824824   8.688584
    28  C    6.694235   7.828928   6.975228   5.404782   7.793890
    29  H    7.902739   8.530839   8.615123   6.552184   7.868442
    30  C    9.226308  10.217499   9.631797   7.874468   9.927564
    31  O    8.691900   9.411715   9.333131   7.323594   8.822585
    32  C    7.914931   9.110655   8.089767   6.674910   9.145060
    33  H    5.788536   6.998984   5.983760   4.563345   7.111702
    34  C    9.102779  10.227784   9.358567   7.809702  10.127245
    35  H   10.243225  11.189444  10.682399   8.881477  10.827014
    36  H    8.070454   9.351097   8.101105   6.929567   9.542421
    37  H   10.056128  11.221323  10.248733   8.791556  11.170714
                    6          7          8          9         10
     6  N    0.000000
     7  C    4.218922   0.000000
     8  H    4.546440   2.176725   0.000000
     9  C    3.676455   1.415661   3.409582   0.000000
    10  H    2.684630   3.420954   4.967989   2.130385   0.000000
    11  C    1.456263   5.115540   5.842755   4.215160   2.494529
    12  C    1.454602   5.104160   4.811042   4.870048   4.133874
    13  C    5.646895   1.429417   2.769432   2.455762   4.585769
    14  H    4.556044   2.159354   4.315260   1.090972   2.440355
    15  H    2.114863   5.096702   6.055414   4.075387   2.255030
    16  H    2.088451   6.118269   6.631801   5.288429   3.576637
    17  H    2.120459   5.205911   6.144502   4.181019   2.319588
    18  H    2.115916   5.112913   4.555407   5.062729   4.599241
    19  H    2.089903   6.113260   5.904649   5.740062   4.674357
    20  H    2.116953   5.156222   4.604443   5.102022   4.627635
    21  C    6.601089   2.511293   2.787845   3.759718   5.874513
    22  H    6.173973   2.147089   3.842408   2.613853   4.640511
    23  C    7.988023   3.814621   4.181559   4.901814   7.029439
    24  H    6.471489   2.788004   2.162503   4.182145   6.198018
    25  C    9.090358   5.048256   4.890398   6.252331   8.380414
    26  O    8.451197   4.247230   5.123595   5.042319   7.098739
    27  C   10.421789   6.296349   6.305015   7.399110   9.524867
    28  C    9.079302   5.362796   4.611517   6.704554   8.781097
    29  H    9.887594   5.675867   6.325177   6.506610   8.558259
    30  C   11.530755   7.500011   7.225754   8.674964  10.805331
    31  O   10.767420   6.559162   6.977939   7.472601   9.549032
    32  C   10.325362   6.726925   5.802908   8.080760  10.145237
    33  H    8.200453   4.744879   3.678451   6.139692   8.141999
    34  C   11.486732   7.681678   7.013735   8.969665  11.079987
    35  H   12.516048   8.425008   8.272086   9.539514  11.665146
    36  H   10.492554   7.189348   5.963018   8.582580  10.579888
    37  H   12.457998   8.729299   7.949108  10.033711  12.136366
                   11         12         13         14         15
    11  C    0.000000
    12  C    2.513368   0.000000
    13  C    6.498253   6.508842   0.000000
    14  H    4.841952   5.842201   2.650529   0.000000
    15  H    1.100584   3.261892   6.417288   4.567042   0.000000
    16  H    1.094355   2.540294   7.521823   5.934891   1.783201
    17  H    1.100983   3.229804   6.520675   4.669097   1.783855
    18  H    3.266986   1.101032   6.455835   6.071141   4.134465
    19  H    2.544411   1.093875   7.531665   6.644264   3.354955
    20  H    3.225255   1.100133   6.513888   6.112752   3.705878
    21  C    7.605680   7.258513   1.370883   4.020405   7.580429
    22  H    6.826597   7.193479   1.095386   2.336177   6.653265
    23  C    8.928113   8.687466   2.456402   4.913411   8.856858
    24  H    7.624245   6.920488   2.132065   4.674402   7.680093
    25  C   10.136798   9.633404   3.800368   6.351537  10.102540
    26  O    9.227306   9.313194   2.822684   4.773751   9.086181
    27  C   11.410927  11.019575   4.956044   7.349080  11.340138
    28  C   10.258669   9.416463   4.367283   7.011873  10.292753
    29  H   10.688332  10.703126   4.248511   6.212339  10.545830
    30  C   12.590907  12.019386   6.220032   8.689991  12.543983
    31  O   11.625631  11.512628   5.141602   7.228157  11.499785
    32  C   11.547788  10.562589   5.753184   8.395817  11.597486
    33  H    9.437492   8.446960   3.985992   6.596275   9.515138
    34  C   12.651390  11.813740   6.549677   9.145911  12.658776
    35  H   13.535772  13.049611   7.095973   9.469085  13.462509
    36  H   11.782957  10.582427   6.377373   9.008844  11.878146
    37  H   13.652825  12.721081   7.625369  10.228754  13.671351
                   16         17         18         19         20
    16  H    0.000000
    17  H    1.783266   0.000000
    18  H    3.355465   3.717750   0.000000
    19  H    2.098744   3.264761   1.782577   0.000000
    20  H    3.256122   4.097397   1.782874   1.779727   0.000000
    21  C    8.579798   7.692134   7.094093   8.328540   7.145263
    22  H    7.895245   6.735407   7.201298   8.162728   7.279218
    23  C    9.930758   8.949958   8.507239   9.752908   8.582874
    24  H    8.522450   7.810985   6.687173   8.011472   6.708929
    25  C   11.097180  10.218639   9.383860  10.720366   9.434707
    26  O   10.278281   9.141638   9.186904  10.341606   9.300184
    27  C   12.398574  11.440014  10.770458  12.102039  10.842098
    28  C   11.141470  10.445117   9.110244  10.509948   9.112064
    29  H   11.735805  10.598446  10.536280  11.745763  10.655440
    30  C   13.547073  12.666163  11.728402  13.111036  11.775219
    31  O   12.659099  11.562616  11.308471  12.572139  11.419353
    32  C   12.398269  11.764215  10.217684  11.650859  10.200660
    33  H   10.274998   9.681309   8.131197   9.537469   8.107817
    34  C   13.545865  12.811051  11.480173  12.906321  11.487367
    35  H   14.511882  13.577386  12.765906  14.138954  12.822877
    36  H   12.569073  12.064861  10.203678  11.654637  10.153076
    37  H   14.525663  13.835553  12.365807  13.809945  12.357978
                   21         22         23         24         25
    21  C    0.000000
    22  H    2.103741   0.000000
    23  C    1.438866   2.633559   0.000000
    24  H    1.088120   3.077639   2.177037   0.000000
    25  C    2.537408   4.102368   1.476376   2.733940   0.000000
    26  O    2.369601   2.462384   1.285012   3.327585   2.371460
    27  C    3.823043   5.021871   2.500352   4.150429   1.427525
    28  C    2.998179   4.951815   2.544428   2.639436   1.411051
    29  H    3.557066   3.920168   2.160612   4.325807   2.325621
    30  C    4.990737   6.378429   3.792320   5.102374   2.454645
    31  O    4.275870   4.915452   2.837149   4.879930   2.415263
    32  C    4.384584   6.313172   3.815040   3.968550   2.445370
    33  H    2.677155   4.769045   2.788332   1.962865   2.171967
    34  C    5.213237   6.921702   4.298995   5.029500   2.823497
    35  H    5.932969   7.137451   4.642037   6.133078   3.428536
    36  H    5.026519   7.056905   4.693396   4.407367   3.428832
    37  H    6.280667   8.011403   5.389976   6.035468   3.914594
                   26         27         28         29         30
    26  O    0.000000
    27  C    2.775001   0.000000
    28  C    3.678118   2.427778   0.000000
    29  H    1.464371   1.883033   3.727245   0.000000
    30  C    4.178327   1.403957   2.787495   3.188997   0.000000
    31  O    2.457392   1.347442   3.672210   1.048178   2.368671
    32  C    4.816513   2.805564   1.386547   4.522239   2.419553
    33  H    4.056248   3.424286   1.088836   4.446401   3.875956
    34  C    5.011540   2.421462   2.409313   4.304151   1.387003
    35  H    4.796698   2.143048   3.877059   3.572171   1.089992
    36  H    5.785063   3.895098   2.150842   5.591181   3.406554
    37  H    6.077299   3.410242   3.396166   5.281504   2.150864
                   31         32         33         34         35
    31  O    0.000000
    32  C    4.152580   0.000000
    33  H    4.575488   2.127677   0.000000
    34  C    3.638560   1.401418   3.385262   0.000000
    35  H    2.573444   3.418366   4.965671   2.168140   0.000000
    36  H    5.242008   1.089611   2.445109   2.166112   4.322181
    37  H    4.517201   2.160455   4.278833   1.091176   2.504878
                   36         37
    36  H    0.000000
    37  H    2.491031   0.000000
 Symmetry turned off by external request.
 Stoichiometry    C17H17NO2
 Framework group  C1[X(C17H17NO2)]
 Deg. of freedom   105
 Full point group                 C1      NOp   1
 Rotational constants (GHZ):      1.0904249      0.1072611      0.0979095
 Leave Link  202 at Thu Aug  9 19:14:32 2018, MaxMem=  1879048192 cpu:         0.0
 (Enter /share/apps/gaussian/g09_D01/g09/l301.exe)
 Standard basis: 6-31++G(d,p) (6D, 7F)
 Ernie: Thresh=  0.10000D-02 Tol=  0.10000D-05 Strict=F.
   482 basis functions,   776 primitive gaussians,   482 cartesian basis functions
    71 alpha electrons       71 beta electrons
       nuclear repulsion energy      1358.4109231705 Hartrees.
 IExCor= 4639 DFT=T Ex+Corr=wB97XD ExCW=0 ScaHFX=  1.000000
 ScaDFX=  1.000000  1.000000  1.000000  1.000000 ScalE2=  1.000000  1.000000
 IRadAn=      0 IRanWt=     -1 IRanGd=            0 ICorTp=0 IEmpDi=121
  HFx wShort=  0.000000 wLong=  0.200000 cFull=  0.222036 cShort=  0.000000 cLong=  0.777964
  DFx wShort=  0.000000 wLong=  0.200000 cFull=  0.000000 cShort=  0.000000 cLong=  1.000000
 NAtoms=   37 NActive=   37 NUniq=   37 SFac= 1.00D+00 NAtFMM=   60 NAOKFM=F Big=F
 Integral buffers will be    131072 words long.
 Raffenetti 1 integral format.
 Two-electron integral symmetry is turned off.
 R6Disp:  Grimme-D2 Dispersion energy=       -0.0228555472 Hartrees.
 Nuclear repulsion after empirical dispersion term =     1358.3880676233 Hartrees.
 Leave Link  301 at Thu Aug  9 19:14:33 2018, MaxMem=  1879048192 cpu:         0.2
 (Enter /share/apps/gaussian/g09_D01/g09/l302.exe)
 NPDir=0 NMtPBC=     1 NCelOv=     1 NCel=       1 NClECP=     1 NCelD=      1
         NCelK=      1 NCelE2=     1 NClLst=     1 CellRange=     0.0.
 One-electron integrals computed using PRISM.
 NBasis=   482 RedAO= T EigKep=  1.47D-06  NBF=   482
 NBsUse=   476 1.00D-06 EigRej=  6.89D-07 NBFU=   476
 Precomputing XC quadrature grid using
 IXCGrd= 4 IRadAn=           0 IRanWt=          -1 IRanGd=           0 AccXCQ= 0.00D+00.
 Generated NRdTot=       0 NPtTot=           0 NUsed=           0 NTot=          32
 NSgBfM=   467   467   467   467   467 MxSgAt=    37 MxSgA2=    37.
 Leave Link  302 at Thu Aug  9 19:14:34 2018, MaxMem=  1879048192 cpu:         1.8
 (Enter /share/apps/gaussian/g09_D01/g09/l308.exe)
 Leave Link  308 at Thu Aug  9 19:14:35 2018, MaxMem=  1879048192 cpu:         0.2
 (Enter /share/apps/gaussian/g09_D01/g09/l303.exe)
 DipDrv:  MaxL=1.
 Leave Link  303 at Thu Aug  9 19:14:35 2018, MaxMem=  1879048192 cpu:         0.2
 (Enter /share/apps/gaussian/g09_D01/g09/l401.exe)
 ExpMin= 3.60D-02 ExpMax= 5.48D+03 ExpMxC= 8.25D+02 IAcc=3 IRadAn=         5 AccDes= 0.00D+00
 Harris functional with IExCor= 4639 and IRadAn=       5 diagonalized for initial guess.
 HarFok:  IExCor= 4639 AccDes= 0.00D+00 IRadAn=         5 IDoV= 1 UseB2=F ITyADJ=14
 ICtDFT=  3500011 ScaDFX=  1.000000  1.000000  1.000000  1.000000
 FoFCou: FMM=F IPFlag=           0 FMFlag=      100000 FMFlg1=           0
         NFxFlg=           0 DoJE=T BraDBF=F KetDBF=T FulRan=T
         wScrn=  0.000000 ICntrl=     500 IOpCl=  0 I1Cent=   200000004 NGrid=           0
         NMat0=    1 NMatS0=      1 NMatT0=    0 NMatD0=    1 NMtDS0=    0 NMtDT0=    0
 Symmetry not used in FoFCou.
 Harris En= -825.338753995862    
 JPrj=0 DoOrth=F DoCkMO=F.
 Leave Link  401 at Thu Aug  9 19:14:49 2018, MaxMem=  1879048192 cpu:        27.7
 (Enter /share/apps/gaussian/g09_D01/g09/l502.exe)
 Closed shell SCF:
 Using DIIS extrapolation, IDIIS=  1040.
 Two-electron integral symmetry not used.
 IVT=      721380 IEndB=      721380 NGot=  1879048192 MDV=  1878576259
 LenX=  1878576259 LenY=  1878343453
 Requested convergence on RMS density matrix=1.00D-08 within 128 cycles.
 Requested convergence on MAX density matrix=1.00D-06.
 Requested convergence on             energy=1.00D-06.
 No special actions if energy rises.
 Fock matrices will be formed incrementally for  20 cycles.

 Cycle   1  Pass 1  IDiag  1:
 FoFJK:  IHMeth= 1 ICntrl=       0 DoSepK=T KAlg= 0 I1Cent=   0 FoldK=F
 IRaf=         1 NMat=   1 IRICut=       1 DoRegI=T DoRafI=F ISym2E= 0.
 FoFCou: FMM=F IPFlag=           0 FMFlag=      100000 FMFlg1=           0
         NFxFlg=           0 DoJE=T BraDBF=F KetDBF=F FulRan=T
         wScrn=  0.000000 ICntrl=     500 IOpCl=  0 I1Cent=           0 NGrid=           0
         NMat0=    1 NMatS0=      1 NMatT0=    0 NMatD0=    1 NMtDS0=    0 NMtDT0=    0
 Symmetry not used in FoFCou.
 E= -862.730289080297    
 DIIS: error= 5.59D-02 at cycle   1 NSaved=   1.
 NSaved= 1 IEnMin= 1 EnMin= -862.730289080297     IErMin= 1 ErrMin= 5.59D-02
 ErrMax= 5.59D-02  0.00D+00 EMaxC= 1.00D-01 BMatC= 8.76D-01 BMatP= 8.76D-01
 IDIUse=3 WtCom= 4.41D-01 WtEn= 5.59D-01
 Coeff-Com:  0.100D+01
 Coeff-En:   0.100D+01
 Coeff:      0.100D+01
 Gap=     0.281 Goal=   None    Shift=    0.000
 GapD=    0.281 DampG=1.000 DampE=0.500 DampFc=0.5000 IDamp=-1.
 Damping current iteration by 5.00D-01
 RMSDP=1.83D-02 MaxDP=1.63D+00              OVMax= 2.00D-01

 Cycle   2  Pass 1  IDiag  1:
 RMSU=  6.33D-03    CP:  8.89D-01
 E= -862.848229421319     Delta-E=       -0.117940341021 Rises=F Damp=T
 DIIS: error= 2.87D-02 at cycle   2 NSaved=   2.
 NSaved= 2 IEnMin= 2 EnMin= -862.848229421319     IErMin= 2 ErrMin= 2.87D-02
 ErrMax= 2.87D-02  0.00D+00 EMaxC= 1.00D-01 BMatC= 1.81D-01 BMatP= 8.76D-01
 IDIUse=3 WtCom= 7.13D-01 WtEn= 2.87D-01
 Coeff-Com: -0.382D+00 0.138D+01
 Coeff-En:   0.000D+00 0.100D+01
 Coeff:     -0.272D+00 0.127D+01
 Gap=     0.269 Goal=   None    Shift=    0.000
 RMSDP=8.88D-03 MaxDP=9.10D-01 DE=-1.18D-01 OVMax= 1.96D-01

 Cycle   3  Pass 1  IDiag  1:
 RMSU=  5.54D-03    CP:  7.74D-01  1.20D+00
 E= -862.937610930768     Delta-E=       -0.089381509450 Rises=F Damp=F
 DIIS: error= 7.69D-03 at cycle   3 NSaved=   3.
 NSaved= 3 IEnMin= 3 EnMin= -862.937610930768     IErMin= 3 ErrMin= 7.69D-03
 ErrMax= 7.69D-03  0.00D+00 EMaxC= 1.00D-01 BMatC= 6.76D-02 BMatP= 1.81D-01
 IDIUse=3 WtCom= 9.23D-01 WtEn= 7.69D-02
 Coeff-Com: -0.318D+00 0.663D+00 0.655D+00
 Coeff-En:   0.000D+00 0.000D+00 0.100D+01
 Coeff:     -0.294D+00 0.612D+00 0.682D+00
 Gap=     0.253 Goal=   None    Shift=    0.000
 RMSDP=5.37D-03 MaxDP=4.11D-01 DE=-8.94D-02 OVMax= 7.77D-02

 Cycle   4  Pass 1  IDiag  1:
 RMSU=  1.87D-03    CP:  7.02D-01  1.54D+00  7.15D-01
 E= -862.995577252770     Delta-E=       -0.057966322001 Rises=F Damp=F
 DIIS: error= 2.35D-03 at cycle   4 NSaved=   4.
 NSaved= 4 IEnMin= 4 EnMin= -862.995577252770     IErMin= 4 ErrMin= 2.35D-03
 ErrMax= 2.35D-03  0.00D+00 EMaxC= 1.00D-01 BMatC= 3.73D-03 BMatP= 6.76D-02
 IDIUse=3 WtCom= 9.77D-01 WtEn= 2.35D-02
 Coeff-Com: -0.143D+00 0.291D+00 0.369D+00 0.483D+00
 Coeff-En:   0.000D+00 0.000D+00 0.000D+00 0.100D+01
 Coeff:     -0.140D+00 0.284D+00 0.360D+00 0.495D+00
 Gap=     0.239 Goal=   None    Shift=    0.000
 RMSDP=1.03D-03 MaxDP=8.65D-02 DE=-5.80D-02 OVMax= 1.16D-02

 Cycle   5  Pass 1  IDiag  1:
 RMSU=  5.03D-04    CP:  7.15D-01  1.50D+00  7.75D-01  8.29D-01
 E= -862.998750244809     Delta-E=       -0.003172992039 Rises=F Damp=F
 DIIS: error= 2.99D-04 at cycle   5 NSaved=   5.
 NSaved= 5 IEnMin= 5 EnMin= -862.998750244809     IErMin= 5 ErrMin= 2.99D-04
 ErrMax= 2.99D-04  0.00D+00 EMaxC= 1.00D-01 BMatC= 1.10D-04 BMatP= 3.73D-03
 IDIUse=3 WtCom= 9.97D-01 WtEn= 2.99D-03
 Coeff-Com:  0.408D-02-0.105D-01 0.216D-01 0.125D+00 0.860D+00
 Coeff-En:   0.000D+00 0.000D+00 0.000D+00 0.000D+00 0.100D+01
 Coeff:      0.407D-02-0.105D-01 0.215D-01 0.124D+00 0.861D+00
 Gap=     0.240 Goal=   None    Shift=    0.000
 RMSDP=5.16D-04 MaxDP=3.56D-02 DE=-3.17D-03 OVMax= 7.80D-03

 Cycle   6  Pass 1  IDiag  1:
 RMSU=  2.36D-04    CP:  7.08D-01  1.51D+00  7.94D-01  9.26D-01  1.02D+00
 E= -862.998937261798     Delta-E=       -0.000187016989 Rises=F Damp=F
 DIIS: error= 2.15D-04 at cycle   6 NSaved=   6.
 NSaved= 6 IEnMin= 6 EnMin= -862.998937261798     IErMin= 6 ErrMin= 2.15D-04
 ErrMax= 2.15D-04  0.00D+00 EMaxC= 1.00D-01 BMatC= 3.74D-05 BMatP= 1.10D-04
 IDIUse=3 WtCom= 9.98D-01 WtEn= 2.15D-03
 Coeff-Com:  0.327D-01-0.676D-01-0.658D-01-0.480D-01 0.436D+00 0.713D+00
 Coeff-En:   0.000D+00 0.000D+00 0.000D+00 0.000D+00 0.000D+00 0.100D+01
 Coeff:      0.326D-01-0.674D-01-0.657D-01-0.479D-01 0.435D+00 0.714D+00
 Gap=     0.241 Goal=   None    Shift=    0.000
 RMSDP=2.01D-04 MaxDP=1.53D-02 DE=-1.87D-04 OVMax= 5.48D-03

 Cycle   7  Pass 1  IDiag  1:
 RMSU=  8.27D-05    CP:  7.05D-01  1.52D+00  7.99D-01  9.63D-01  1.18D+00
                    CP:  1.02D+00
 E= -862.999001443090     Delta-E=       -0.000064181293 Rises=F Damp=F
 DIIS: error= 8.82D-05 at cycle   7 NSaved=   7.
 NSaved= 7 IEnMin= 7 EnMin= -862.999001443090     IErMin= 7 ErrMin= 8.82D-05
 ErrMax= 8.82D-05  0.00D+00 EMaxC= 1.00D-01 BMatC= 3.28D-06 BMatP= 3.74D-05
 IDIUse=1 WtCom= 1.00D+00 WtEn= 0.00D+00
 Coeff-Com:  0.635D-02-0.128D-01-0.152D-01-0.205D-01 0.369D-02 0.210D+00
 Coeff-Com:  0.828D+00
 Coeff:      0.635D-02-0.128D-01-0.152D-01-0.205D-01 0.369D-02 0.210D+00
 Coeff:      0.828D+00
 Gap=     0.241 Goal=   None    Shift=    0.000
 RMSDP=5.46D-05 MaxDP=3.35D-03 DE=-6.42D-05 OVMax= 2.09D-03

 Cycle   8  Pass 1  IDiag  1:
 RMSU=  3.33D-05    CP:  7.05D-01  1.52D+00  8.00D-01  9.74D-01  1.19D+00
                    CP:  1.12D+00  1.02D+00
 E= -862.999009570600     Delta-E=       -0.000008127509 Rises=F Damp=F
 DIIS: error= 3.18D-05 at cycle   8 NSaved=   8.
 NSaved= 8 IEnMin= 8 EnMin= -862.999009570600     IErMin= 8 ErrMin= 3.18D-05
 ErrMax= 3.18D-05  0.00D+00 EMaxC= 1.00D-01 BMatC= 8.83D-07 BMatP= 3.28D-06
 IDIUse=1 WtCom= 1.00D+00 WtEn= 0.00D+00
 Coeff-Com: -0.361D-02 0.764D-02 0.623D-02-0.829D-04-0.997D-01-0.483D-01
 Coeff-Com:  0.373D+00 0.765D+00
 Coeff:     -0.361D-02 0.764D-02 0.623D-02-0.829D-04-0.997D-01-0.483D-01
 Coeff:      0.373D+00 0.765D+00
 Gap=     0.241 Goal=   None    Shift=    0.000
 RMSDP=2.88D-05 MaxDP=1.82D-03 DE=-8.13D-06 OVMax= 1.39D-03

 Cycle   9  Pass 1  IDiag  1:
 RMSU=  1.57D-05    CP:  7.05D-01  1.52D+00  7.99D-01  9.79D-01  1.21D+00
                    CP:  1.15D+00  1.15D+00  1.31D+00
 E= -862.999012027132     Delta-E=       -0.000002456532 Rises=F Damp=F
 DIIS: error= 1.89D-05 at cycle   9 NSaved=   9.
 NSaved= 9 IEnMin= 9 EnMin= -862.999012027132     IErMin= 9 ErrMin= 1.89D-05
 ErrMax= 1.89D-05  0.00D+00 EMaxC= 1.00D-01 BMatC= 9.39D-08 BMatP= 8.83D-07
 IDIUse=1 WtCom= 1.00D+00 WtEn= 0.00D+00
 Coeff-Com: -0.225D-02 0.461D-02 0.498D-02 0.432D-02-0.295D-01-0.477D-01
 Coeff-Com: -0.484D-01 0.169D+00 0.945D+00
 Coeff:     -0.225D-02 0.461D-02 0.498D-02 0.432D-02-0.295D-01-0.477D-01
 Coeff:     -0.484D-01 0.169D+00 0.945D+00
 Gap=     0.241 Goal=   None    Shift=    0.000
 RMSDP=1.16D-05 MaxDP=4.92D-04 DE=-2.46D-06 OVMax= 5.96D-04

 Cycle  10  Pass 1  IDiag  1:
 RMSU=  6.33D-06    CP:  7.05D-01  1.52D+00  8.00D-01  9.79D-01  1.22D+00
                    CP:  1.16D+00  1.20D+00  1.46D+00  1.31D+00
 E= -862.999012412408     Delta-E=       -0.000000385276 Rises=F Damp=F
 DIIS: error= 4.54D-06 at cycle  10 NSaved=  10.
 NSaved=10 IEnMin=10 EnMin= -862.999012412408     IErMin=10 ErrMin= 4.54D-06
 ErrMax= 4.54D-06  0.00D+00 EMaxC= 1.00D-01 BMatC= 1.49D-08 BMatP= 9.39D-08
 IDIUse=1 WtCom= 1.00D+00 WtEn= 0.00D+00
 Coeff-Com:  0.537D-04-0.142D-03 0.189D-03 0.107D-02 0.623D-02-0.436D-02
 Coeff-Com: -0.654D-01-0.643D-01 0.270D+00 0.856D+00
 Coeff:      0.537D-04-0.142D-03 0.189D-03 0.107D-02 0.623D-02-0.436D-02
 Coeff:     -0.654D-01-0.643D-01 0.270D+00 0.856D+00
 Gap=     0.241 Goal=   None    Shift=    0.000
 RMSDP=4.41D-06 MaxDP=1.94D-04 DE=-3.85D-07 OVMax= 2.15D-04

 Cycle  11  Pass 1  IDiag  1:
 RMSU=  1.91D-06    CP:  7.05D-01  1.52D+00  8.00D-01  9.79D-01  1.22D+00
                    CP:  1.16D+00  1.21D+00  1.51D+00  1.49D+00  1.19D+00
 E= -862.999012462641     Delta-E=       -0.000000050233 Rises=F Damp=F
 DIIS: error= 2.21D-06 at cycle  11 NSaved=  11.
 NSaved=11 IEnMin=11 EnMin= -862.999012462641     IErMin=11 ErrMin= 2.21D-06
 ErrMax= 2.21D-06  0.00D+00 EMaxC= 1.00D-01 BMatC= 3.76D-09 BMatP= 1.49D-08
 IDIUse=1 WtCom= 1.00D+00 WtEn= 0.00D+00
 Coeff-Com:  0.379D-03-0.790D-03-0.727D-03-0.144D-03 0.722D-02 0.572D-02
 Coeff-Com: -0.159D-01-0.507D-01-0.736D-01 0.333D+00 0.796D+00
 Coeff:      0.379D-03-0.790D-03-0.727D-03-0.144D-03 0.722D-02 0.572D-02
 Coeff:     -0.159D-01-0.507D-01-0.736D-01 0.333D+00 0.796D+00
 Gap=     0.241 Goal=   None    Shift=    0.000
 RMSDP=2.19D-06 MaxDP=1.47D-04 DE=-5.02D-08 OVMax= 7.02D-05

 Cycle  12  Pass 1  IDiag  1:
 RMSU=  1.10D-06    CP:  7.05D-01  1.52D+00  8.00D-01  9.79D-01  1.22D+00
                    CP:  1.16D+00  1.22D+00  1.52D+00  1.53D+00  1.26D+00
                    CP:  1.17D+00
 E= -862.999012471409     Delta-E=       -0.000000008768 Rises=F Damp=F
 DIIS: error= 9.43D-07 at cycle  12 NSaved=  12.
 NSaved=12 IEnMin=12 EnMin= -862.999012471409     IErMin=12 ErrMin= 9.43D-07
 ErrMax= 9.43D-07  0.00D+00 EMaxC= 1.00D-01 BMatC= 5.42D-10 BMatP= 3.76D-09
 IDIUse=1 WtCom= 1.00D+00 WtEn= 0.00D+00
 Coeff-Com:  0.131D-03-0.268D-03-0.286D-03-0.123D-03 0.210D-02 0.228D-02
 Coeff-Com:  0.356D-02-0.894D-02-0.684D-01-0.307D-02 0.283D+00 0.790D+00
 Coeff:      0.131D-03-0.268D-03-0.286D-03-0.123D-03 0.210D-02 0.228D-02
 Coeff:      0.356D-02-0.894D-02-0.684D-01-0.307D-02 0.283D+00 0.790D+00
 Gap=     0.241 Goal=   None    Shift=    0.000
 RMSDP=6.51D-07 MaxDP=4.06D-05 DE=-8.77D-09 OVMax= 2.38D-05

 Cycle  13  Pass 1  IDiag  1:
 RMSU=  3.53D-07    CP:  7.05D-01  1.52D+00  8.00D-01  9.79D-01  1.22D+00
                    CP:  1.16D+00  1.22D+00  1.52D+00  1.55D+00  1.30D+00
                    CP:  1.28D+00  1.17D+00
 E= -862.999012472570     Delta-E=       -0.000000001161 Rises=F Damp=F
 DIIS: error= 3.16D-07 at cycle  13 NSaved=  13.
 NSaved=13 IEnMin=13 EnMin= -862.999012472570     IErMin=13 ErrMin= 3.16D-07
 ErrMax= 3.16D-07  0.00D+00 EMaxC= 1.00D-01 BMatC= 1.20D-10 BMatP= 5.42D-10
 IDIUse=1 WtCom= 1.00D+00 WtEn= 0.00D+00
 Coeff-Com: -0.249D-04 0.536D-04 0.342D-04-0.499D-05-0.561D-03-0.455D-03
 Coeff-Com:  0.507D-02 0.653D-02-0.133D-01-0.669D-01-0.469D-01 0.349D+00
 Coeff-Com:  0.767D+00
 Coeff:     -0.249D-04 0.536D-04 0.342D-04-0.499D-05-0.561D-03-0.455D-03
 Coeff:      0.507D-02 0.653D-02-0.133D-01-0.669D-01-0.469D-01 0.349D+00
 Coeff:      0.767D+00
 Gap=     0.241 Goal=   None    Shift=    0.000
 RMSDP=3.85D-07 MaxDP=2.91D-05 DE=-1.16D-09 OVMax= 9.12D-06

 Cycle  14  Pass 1  IDiag  1:
 RMSU=  1.77D-07    CP:  7.05D-01  1.52D+00  8.00D-01  9.79D-01  1.22D+00
                    CP:  1.16D+00  1.22D+00  1.52D+00  1.55D+00  1.31D+00
                    CP:  1.30D+00  1.30D+00  1.10D+00
 E= -862.999012472873     Delta-E=       -0.000000000303 Rises=F Damp=F
 DIIS: error= 1.27D-07 at cycle  14 NSaved=  14.
 NSaved=14 IEnMin=14 EnMin= -862.999012472873     IErMin=14 ErrMin= 1.27D-07
 ErrMax= 1.27D-07  0.00D+00 EMaxC= 1.00D-01 BMatC= 6.76D-12 BMatP= 1.20D-10
 IDIUse=1 WtCom= 1.00D+00 WtEn= 0.00D+00
 Coeff-Com: -0.166D-04 0.345D-04 0.331D-04 0.132D-05-0.321D-03-0.343D-03
 Coeff-Com:  0.769D-03 0.163D-02 0.482D-02-0.108D-01-0.402D-01-0.146D-02
 Coeff-Com:  0.107D+00 0.939D+00
 Coeff:     -0.166D-04 0.345D-04 0.331D-04 0.132D-05-0.321D-03-0.343D-03
 Coeff:      0.769D-03 0.163D-02 0.482D-02-0.108D-01-0.402D-01-0.146D-02
 Coeff:      0.107D+00 0.939D+00
 Gap=     0.241 Goal=   None    Shift=    0.000
 RMSDP=1.37D-07 MaxDP=1.04D-05 DE=-3.03D-10 OVMax= 4.01D-06

 Cycle  15  Pass 1  IDiag  1:
 RMSU=  4.18D-08    CP:  7.05D-01  1.52D+00  8.00D-01  9.79D-01  1.22D+00
                    CP:  1.16D+00  1.22D+00  1.52D+00  1.54D+00  1.31D+00
                    CP:  1.31D+00  1.34D+00  1.18D+00  1.26D+00
 E= -862.999012472879     Delta-E=       -0.000000000006 Rises=F Damp=F
 DIIS: error= 6.66D-08 at cycle  15 NSaved=  15.
 NSaved=15 IEnMin=15 EnMin= -862.999012472879     IErMin=15 ErrMin= 6.66D-08
 ErrMax= 6.66D-08  0.00D+00 EMaxC= 1.00D-01 BMatC= 1.47D-12 BMatP= 6.76D-12
 IDIUse=1 WtCom= 1.00D+00 WtEn= 0.00D+00
 Coeff-Com: -0.235D-05 0.458D-05 0.716D-05 0.236D-06-0.179D-04-0.537D-04
 Coeff-Com: -0.470D-03-0.630D-03 0.357D-02 0.690D-02-0.771D-02-0.464D-01
 Coeff-Com: -0.914D-01 0.264D+00 0.872D+00
 Coeff:     -0.235D-05 0.458D-05 0.716D-05 0.236D-06-0.179D-04-0.537D-04
 Coeff:     -0.470D-03-0.630D-03 0.357D-02 0.690D-02-0.771D-02-0.464D-01
 Coeff:     -0.914D-01 0.264D+00 0.872D+00
 Gap=     0.241 Goal=   None    Shift=    0.000
 RMSDP=5.77D-08 MaxDP=3.78D-06 DE=-6.37D-12 OVMax= 2.06D-06

 Cycle  16  Pass 1  IDiag  1:
 RMSU=  1.88D-08    CP:  7.05D-01  1.52D+00  8.00D-01  9.79D-01  1.22D+00
                    CP:  1.16D+00  1.22D+00  1.52D+00  1.54D+00  1.31D+00
                    CP:  1.31D+00  1.35D+00  1.22D+00  1.35D+00  1.31D+00
 E= -862.999012472826     Delta-E=        0.000000000053 Rises=F Damp=F
 DIIS: error= 2.54D-08 at cycle  16 NSaved=  16.
 NSaved=16 IEnMin=15 EnMin= -862.999012472879     IErMin=16 ErrMin= 2.54D-08
 ErrMax= 2.54D-08  0.00D+00 EMaxC= 1.00D-01 BMatC= 2.43D-13 BMatP= 1.47D-12
 IDIUse=1 WtCom= 1.00D+00 WtEn= 0.00D+00
 Coeff-Com:  0.227D-05-0.477D-05-0.458D-05-0.112D-05 0.503D-04 0.427D-04
 Coeff-Com: -0.169D-03-0.394D-03-0.289D-03 0.316D-02 0.449D-02-0.332D-02
 Coeff-Com: -0.377D-01-0.140D+00 0.162D+00 0.101D+01
 Coeff:      0.227D-05-0.477D-05-0.458D-05-0.112D-05 0.503D-04 0.427D-04
 Coeff:     -0.169D-03-0.394D-03-0.289D-03 0.316D-02 0.449D-02-0.332D-02
 Coeff:     -0.377D-01-0.140D+00 0.162D+00 0.101D+01
 Gap=     0.241 Goal=   None    Shift=    0.000
 RMSDP=2.45D-08 MaxDP=1.31D-06 DE= 5.32D-11 OVMax= 8.93D-07

 Cycle  17  Pass 1  IDiag  1:
 RMSU=  7.26D-09    CP:  7.05D-01  1.52D+00  8.00D-01  9.79D-01  1.22D+00
                    CP:  1.16D+00  1.22D+00  1.52D+00  1.54D+00  1.31D+00
                    CP:  1.31D+00  1.36D+00  1.22D+00  1.39D+00  1.46D+00
                    CP:  1.30D+00
 E= -862.999012472919     Delta-E=       -0.000000000093 Rises=F Damp=F
 DIIS: error= 8.45D-09 at cycle  17 NSaved=  17.
 NSaved=17 IEnMin=17 EnMin= -862.999012472919     IErMin=17 ErrMin= 8.45D-09
 ErrMax= 8.45D-09  0.00D+00 EMaxC= 1.00D-01 BMatC= 3.85D-14 BMatP= 2.43D-13
 IDIUse=1 WtCom= 1.00D+00 WtEn= 0.00D+00
 Coeff-Com:  0.853D-06-0.176D-05-0.200D-05 0.170D-06 0.196D-04 0.175D-04
 Coeff-Com:  0.302D-06-0.528D-04-0.501D-03 0.338D-03 0.207D-02 0.534D-02
 Coeff-Com: -0.122D-02-0.785D-01-0.440D-01 0.356D+00 0.760D+00
 Coeff:      0.853D-06-0.176D-05-0.200D-05 0.170D-06 0.196D-04 0.175D-04
 Coeff:      0.302D-06-0.528D-04-0.501D-03 0.338D-03 0.207D-02 0.534D-02
 Coeff:     -0.122D-02-0.785D-01-0.440D-01 0.356D+00 0.760D+00
 Gap=     0.241 Goal=   None    Shift=    0.000
 RMSDP=4.88D-09 MaxDP=2.28D-07 DE=-9.28D-11 OVMax= 2.33D-07

 SCF Done:  E(RwB97XD) =  -862.999012473     A.U. after   17 cycles
            NFock= 17  Conv=0.49D-08     -V/T= 2.0097
 KE= 8.547110979667D+02 PE=-4.720592919796D+03 EE= 1.644494741733D+03
 Leave Link  502 at Thu Aug  9 19:25:24 2018, MaxMem=  1879048192 cpu:      1268.3
 (Enter /share/apps/gaussian/g09_D01/g09/l801.exe)
 DoSCS=F DFT=T ScalE2(SS,OS)=  1.000000  1.000000
 ExpMin= 3.60D-02 ExpMax= 5.48D+03 ExpMxC= 8.25D+02 IAcc=3 IRadAn=         5 AccDes= 0.00D+00
 HarFok:  IExCor=  205 AccDes= 0.00D+00 IRadAn=         5 IDoV=-2 UseB2=F ITyADJ=14
 ICtDFT= 12500011 ScaDFX=  1.000000  1.000000  1.000000  1.000000
 Largest valence mixing into a core orbital is  7.34D-05
 Largest core mixing into a valence orbital is  1.45D-05
 Range of M.O.s used for correlation:    21   476
 NBasis=   482 NAE=    71 NBE=    71 NFC=    20 NFV=     0
 NROrb=    456 NOA=    51 NOB=    51 NVA=   405 NVB=   405

 **** Warning!!: The largest alpha MO coefficient is  0.11543265D+03

 Leave Link  801 at Thu Aug  9 19:25:25 2018, MaxMem=  1879048192 cpu:         1.6
 (Enter /share/apps/gaussian/g09_D01/g09/l914.exe)
 RHF ground state
 MDV=  1879048192 DFT=T DoStab=F Mixed=T DoRPA=T DoScal=F NonHer=T
 Would need an additional         38826700000 words for in-memory AO integral storage.
 Making orbital integer symmetry assigments:
     8 initial guesses have been made.
 Convergence on wavefunction:    0.001000000000000
 Davidson Disk Diagonalization:  ConvIn= 1.00D-03 SkipCon=T Conv= 1.00D-03.
 Max sub-space:   200 roots to seek:     8 dimension of matrix:        41310
 Iteration     1 Dimension     8 NMult     0 NNew      8
 CISAX will form     8 AO SS matrices at one time.
 NMat=     8 NSing=     8 JSym2X= 0.
 FoFJK:  IHMeth= 1 ICntrl=       0 DoSepK=T KAlg= 0 I1Cent=   0 FoldK=F
 IRaf=         1 NMat=  16 IRICut=       1 DoRegI=T DoRafI=F ISym2E= 0.
 FoFCou: FMM=F IPFlag=           0 FMFlag=      100000 FMFlg1=           0
         NFxFlg=           0 DoJE=F BraDBF=F KetDBF=F FulRan=T
         wScrn=  0.000000 ICntrl=     500 IOpCl=  0 I1Cent=           0 NGrid=           0
         NMat0=    8 NMatS0=      8 NMatT0=    0 NMatD0=    8 NMtDS0=    0 NMtDT0=    0
 Symmetry not used in FoFCou.
 Excitation Energies [eV] at current iteration:
 Root      1 :     3.915196528052148
 Root      2 :     4.309262660411010
 Root      3 :     4.580048867174644
 Root      4 :     5.516908193840997
 Root      5 :     5.695185879493347
 Root      6 :     5.822069984409578
 Root      7 :     5.958294212723323
 Root      8 :     6.221498395248516
 Iteration     2 Dimension    12 NMult     8 NNew      4
 CISAX will form     4 AO SS matrices at one time.
 NMat=     4 NSing=     4 JSym2X= 0.
 Root      1 not converged, maximum delta is    0.091773818999712
 Excitation Energies [eV] at current iteration:
 Root      1 :     3.408279130021296   Change is   -0.506917398030852
 Root      2 :     3.865372734778742   Change is   -0.443889925632269
 Iteration     3 Dimension    16 NMult    12 NNew      4
 CISAX will form     4 AO SS matrices at one time.
 NMat=     4 NSing=     4 JSym2X= 0.
 Root      1 not converged, maximum delta is    0.020840633027068
 Excitation Energies [eV] at current iteration:
 Root      1 :     3.365439580454509   Change is   -0.042839549566787
 Root      2 :     3.832809258980414   Change is   -0.032563475798328
 Iteration     4 Dimension    20 NMult    16 NNew      4
 CISAX will form     4 AO SS matrices at one time.
 NMat=     4 NSing=     4 JSym2X= 0.
 Root      1 not converged, maximum delta is    0.008050217007210
 Excitation Energies [eV] at current iteration:
 Root      1 :     3.359101302827687   Change is   -0.006338277626822
 Root      2 :     3.830331576982064   Change is   -0.002477681998350
 Iteration     5 Dimension    24 NMult    20 NNew      4
 CISAX will form     4 AO SS matrices at one time.
 NMat=     4 NSing=     4 JSym2X= 0.
 Root      1 not converged, maximum delta is    0.002989373867346
 Excitation Energies [eV] at current iteration:
 Root      1 :     3.358226559511733   Change is   -0.000874743315954
 Root      2 :     3.830144169934094   Change is   -0.000187407047970
 Iteration     6 Dimension    28 NMult    24 NNew      4
 CISAX will form     4 AO SS matrices at one time.
 NMat=     4 NSing=     4 JSym2X= 0.
 Root      1 not converged, maximum delta is    0.001942518096189
 Excitation Energies [eV] at current iteration:
 Root      1 :     3.358092621524507   Change is   -0.000133937987226
 Root      2 :     3.830123646645618   Change is   -0.000020523288476
 Iteration     7 Dimension    32 NMult    28 NNew      4
 CISAX will form     4 AO SS matrices at one time.
 NMat=     4 NSing=     4 JSym2X= 0.
 Root      1 has converged.
 Excitation Energies [eV] at current iteration:
 Root      1 :     3.358070241259001   Change is   -0.000022380265506
 Root      2 :     3.830121349315323   Change is   -0.000002297330295
 Convergence achieved on expansion vectors.
 ***********************************************************************
 Excited states from <AA,BB:AA,BB> singles matrix:
 ***********************************************************************
 
 1PDM for each excited state written to RWF  633
 Ground to excited state transition densities written to RWF  633
 Ground to excited state transition electric dipole moments (Au):
       state          X           Y           Z        Dip. S.      Osc.
         1         3.5790      0.3337     -1.3583     14.7656      1.2148
 Ground to excited state transition velocity dipole moments (Au):
       state          X           Y           Z        Dip. S.      Osc.
         1        -0.4310     -0.0375      0.1670      0.2150      1.1616
 Ground to excited state transition magnetic dipole moments (Au):
       state          X           Y           Z
         1        -1.5183      1.5755     -3.6026
 Ground to excited state transition velocity quadrupole moments (Au):
       state          XX          YY          ZZ          XY          XZ          YZ
         1        -4.5074      0.5108     -1.5183      2.6419      2.7098     -0.9825
 <0|del|b> * <b|rxdel|0> + <0|del|b> * <b|delr+rdel|0>
 Rotatory Strengths (R) in cgs (10**-40 erg-esu-cm/Gauss)
       state          XX          YY          ZZ    R(velocity)    E-M Angle
         1      -337.9513     99.9933    201.6839    -12.0914       90.19
 1/2[<0|r|b>*<b|rxdel|0> + (<0|rxdel|b>*<b|r|0>)*]
 Rotatory Strengths (R) in cgs (10**-40 erg-esu-cm/Gauss)
       state          XX          YY          ZZ     R(length)
         1      3842.6800   -371.8502  -3460.4449      3.4616
  1/2[<0|del|b>*<b|r|0> + (<0|r|b>*<b|del|0>)*] (Au)
       state          X           Y           Z        Dip. S.   Osc.(frdel)
         1        -1.5424     -0.0125     -0.2268      1.7818      1.1879

 Excitation energies and oscillator strengths:
 
 Excited state symmetry could not be determined.
 Excited State   1:      Singlet-?Sym    3.3581 eV  369.21 nm  f=1.2148  <S**2>=0.000
      70 -> 72        -0.14042
      70 -> 74        -0.12080
      71 -> 72         0.65971
 This state for optimization and/or second-order correction.
 Total Energy, E(TD-HF/TD-KS) =  -862.875605657    
 Copying the excited state density for this state as the 1-particle RhoCI density.
 SavETr:  write IOETrn=   770 NScale= 10 NData=  16 NLR=1 NState=    1 LETran=      28.
 Leave Link  914 at Thu Aug  9 19:43:11 2018, MaxMem=  1879048192 cpu:      2131.4
 (Enter /share/apps/gaussian/g09_D01/g09/l601.exe)
 Copying SCF densities to generalized density rwf, IOpCl= 0 IROHF=0.
 Alpha spin Natural Transition Orbitals for state    1:
                          67        68        69        70        71
                           O         O         O         O         O
     Eigenvalues --     0.00135   0.00148   0.00502   0.04737   0.94542
   1 1   C  1S          0.01183  -0.00074   0.00037  -0.00028   0.00002
   2        2S         -0.02494   0.00176  -0.00077   0.00015  -0.00022
   3        2PX        -0.12182   0.07928  -0.04192   0.03200   0.03693
   4        2PY        -0.05923  -0.17743   0.10388  -0.08149  -0.09141
   5        2PZ         0.03481   0.16456  -0.10253   0.07765   0.08866
   6        3S         -0.03914  -0.00283  -0.00688   0.00802  -0.00168
   7        3PX        -0.03653   0.05336  -0.03442   0.02871   0.02826
   8        3PY        -0.03066  -0.11727   0.07389  -0.06414  -0.07521
   9        3PZ         0.01069   0.11076  -0.06874   0.05914   0.07135
  10        4S          0.03517   0.05004   0.02646  -0.03436   0.03797
  11        4PX         0.05868   0.00185   0.18126   0.08427   0.02909
  12        4PY         0.05623  -0.05436   0.10265   0.02983  -0.03223
  13        4PZ         0.02535   0.03214  -0.02984   0.07819   0.09036
  14        5XX         0.00553   0.00568  -0.00440  -0.00160  -0.00446
  15        5YY         0.00174   0.00076  -0.00075   0.00290   0.00403
  16        5ZZ        -0.00500  -0.00679   0.00497  -0.00134   0.00036
  17        5XY         0.00900  -0.00642   0.00584   0.00149   0.00465
  18        5XZ         0.00445   0.00519  -0.00419  -0.00233  -0.00531
  19        5YZ        -0.00388   0.00262  -0.00276  -0.00089  -0.00245
  20 2   C  1S         -0.02009  -0.00019  -0.00009  -0.00021  -0.00002
  21        2S          0.04365   0.00041   0.00030   0.00016  -0.00023
  22        2PX         0.10633  -0.00433   0.02055   0.02691   0.04643
  23        2PY         0.03095   0.02243  -0.05079  -0.05111  -0.09628
  24        2PZ         0.05232  -0.01520   0.04679   0.05191   0.09475
  25        3S          0.07027  -0.00030  -0.00115   0.00276   0.00030
  26        3PX         0.01767  -0.00039   0.01218   0.01782   0.03564
  27        3PY         0.01621   0.01367  -0.02113  -0.04283  -0.07869
  28        3PZ         0.04366  -0.00823   0.01598   0.04358   0.07345
  29        4S          0.10601  -0.10266   0.18677   0.20748   0.11786
  30        4PX        -0.02780  -0.02637   0.10599   0.02815  -0.00149
  31        4PY        -0.02681  -0.00941   0.10743   0.06320   0.00370
  32        4PZ        -0.00361  -0.00500   0.09830   0.03343  -0.01924
  33        5XX        -0.00482   0.00443  -0.01035   0.00798   0.00831
  34        5YY        -0.00015  -0.01491   0.00087   0.00234   0.00211
  35        5ZZ         0.00215   0.01048   0.00945  -0.01040  -0.01054
  36        5XY         0.00436  -0.00131   0.01216  -0.01016  -0.01063
  37        5XZ         0.00351   0.00817  -0.00999   0.00699   0.00747
  38        5YZ         0.00014   0.00176  -0.00594   0.00477   0.00505
  39 3   H  1S         -0.02966  -0.00468  -0.00152  -0.00042   0.00024
  40        2S         -0.03248  -0.00605  -0.00232  -0.00116   0.00015
  41        3S         -0.06522  -0.01165  -0.03502  -0.02792  -0.03445
  42        4PX        -0.00165   0.00214  -0.00121   0.00097   0.00126
  43        4PY        -0.00034  -0.00454   0.00299  -0.00236  -0.00285
  44        4PZ         0.00123   0.00443  -0.00282   0.00234   0.00276
  45 4   C  1S         -0.01769   0.00305   0.00012   0.00042  -0.00035
  46        2S          0.03068  -0.00682  -0.00002  -0.00030   0.00119
  47        2PX         0.21782   0.08458  -0.05821  -0.00616  -0.03101
  48        2PY         0.15999  -0.16960   0.12657   0.02344   0.07784
  49        2PZ         0.05634   0.19996  -0.11670  -0.01945  -0.07588
  50        3S          0.02695  -0.00982   0.00344  -0.01070  -0.00167
  51        3PX         0.06839   0.05151  -0.04112  -0.00068  -0.02522
  52        3PY         0.06836  -0.11150   0.07839   0.01693   0.05513
  53        3PZ         0.03556   0.12521  -0.06909  -0.01206  -0.04357
  54        4S          0.14986  -0.10393  -0.06180   0.20505   0.01933
  55        4PX        -0.01892  -0.03864   0.11721   0.11717   0.02026
  56        4PY        -0.11137  -0.00147  -0.09068  -0.06765   0.01133
  57        4PZ        -0.08839   0.04626  -0.17746  -0.16153  -0.09773
  58        5XX         0.00294  -0.00384   0.00394  -0.00313  -0.00302
  59        5YY         0.00110   0.00009  -0.00203  -0.00549  -0.00858
  60        5ZZ        -0.00254   0.00425  -0.00183   0.00884   0.01168
  61        5XY         0.01170   0.00670  -0.00427   0.00580   0.00646
  62        5XZ         0.00782  -0.00427   0.00420  -0.00145  -0.00037
  63        5YZ        -0.00010  -0.00311   0.00205  -0.00220  -0.00217
  64 5   C  1S          0.00437   0.00114  -0.00022   0.00030   0.00018
  65        2S         -0.01024  -0.00226   0.00070  -0.00084  -0.00040
  66        2PX        -0.02580  -0.08125  -0.01642   0.04132   0.04352
  67        2PY         0.00819   0.17567   0.03874  -0.09781  -0.10152
  68        2PZ        -0.01619  -0.16896  -0.03435   0.09108   0.09483
  69        3S         -0.00898  -0.00663  -0.00193   0.00187  -0.00350
  70        3PX        -0.01318  -0.05624  -0.01288   0.03232   0.03433
  71        3PY         0.01123   0.11850   0.02692  -0.07549  -0.08407
  72        3PZ        -0.00846  -0.11110  -0.02638   0.07090   0.07870
  73        4S         -0.08722  -0.01846  -0.01199   0.00605   0.04917
  74        4PX        -0.02695  -0.02002  -0.08944  -0.01202   0.06708
  75        4PY        -0.00280   0.03802   0.05268  -0.04428  -0.07799
  76        4PZ        -0.00210  -0.03502   0.06371   0.05086   0.01434
  77        5XX         0.00007  -0.00367  -0.00250   0.00033  -0.00184
  78        5YY         0.00046   0.00044  -0.00100  -0.00327  -0.00543
  79        5ZZ         0.00164   0.00354   0.00347   0.00305   0.00729
  80        5XY         0.00500   0.00594   0.00342   0.00071   0.00398
  81        5XZ         0.00214  -0.00380  -0.00209   0.00122  -0.00025
  82        5YZ        -0.00057  -0.00284  -0.00156  -0.00002  -0.00146
  83 6   N  1S          0.00839  -0.00021  -0.00006   0.00005  -0.00011
  84        2S         -0.01743   0.00031  -0.00025   0.00006   0.00012
  85        2PX        -0.02005  -0.01030   0.10213  -0.07540  -0.07794
  86        2PY        -0.05179   0.01775  -0.20365   0.14955   0.15558
  87        2PZ         0.06419  -0.01765   0.20358  -0.14913  -0.15516
  88        3S         -0.05247   0.00223   0.00354  -0.00235   0.00059
  89        3PX        -0.01550  -0.00785   0.08316  -0.06422  -0.06710
  90        3PY        -0.03646   0.01338  -0.16385   0.12706   0.13608
  91        3PZ         0.05282  -0.01420   0.16300  -0.12570  -0.13508
  92        4S         -0.01458   0.00822   0.00437  -0.01309  -0.00554
  93        4PX         0.00816   0.00029   0.01735  -0.02486  -0.02566
  94        4PY         0.00724   0.00052  -0.04922   0.04403   0.04949
  95        4PZ         0.02424  -0.00649   0.04219  -0.04190  -0.04366
  96        5XX         0.00426  -0.00059   0.00258   0.00094   0.00245
  97        5YY         0.00080  -0.00029   0.00051   0.00022   0.00045
  98        5ZZ        -0.00238   0.00087  -0.00328  -0.00104  -0.00291
  99        5XY         0.00091   0.00106  -0.00352  -0.00102  -0.00300
 100        5XZ         0.00225  -0.00037   0.00231   0.00067   0.00190
 101        5YZ        -0.00055  -0.00046   0.00155   0.00057   0.00151
 102 7   C  1S          0.00798  -0.00072  -0.00012   0.00047   0.00016
 103        2S         -0.01809   0.00086  -0.00044  -0.00071  -0.00124
 104        2PX        -0.04985   0.00886  -0.01709  -0.05664  -0.07746
 105        2PY        -0.03545  -0.05384   0.03867   0.11974   0.16748
 106        2PZ        -0.08836   0.01452  -0.04366  -0.11651  -0.15940
 107        3S         -0.00917   0.01266   0.01030  -0.00791   0.01063
 108        3PX         0.00117   0.01468  -0.00291  -0.04577  -0.05388
 109        3PY         0.00886  -0.02422   0.02516   0.08571   0.13273
 110        3PZ        -0.03547   0.01128  -0.02761  -0.07202  -0.12101
 111        4S         -0.05443   0.04395  -0.06150  -0.11258  -0.11801
 112        4PX        -0.12494   0.00800   0.01312  -0.12217   0.00711
 113        4PY        -0.11486   0.02643  -0.08078  -0.07105   0.04139
 114        4PZ        -0.07673   0.02680  -0.11492  -0.06421  -0.01672
 115        5XX         0.00318   0.00574   0.00573  -0.00235   0.00374
 116        5YY         0.00144  -0.01413   0.00321  -0.00012  -0.00004
 117        5ZZ        -0.00296   0.00845  -0.00902   0.00234  -0.00384
 118        5XY         0.00850  -0.00027  -0.00792   0.00316  -0.00493
 119        5XZ         0.00824   0.00800   0.00392  -0.00149   0.00358
 120        5YZ        -0.00121   0.00090   0.00351  -0.00181   0.00225
 121 8   H  1S          0.19228   0.00818   0.00032   0.00273   0.00239
 122        2S          0.16753   0.01074  -0.00010   0.00082   0.00056
 123        3S          0.13156   0.02882   0.04426   0.01769   0.04190
 124        4PX        -0.00566   0.00195  -0.00136  -0.00032  -0.00089
 125        4PY        -0.00421  -0.00481   0.00287   0.00053   0.00173
 126        4PZ        -0.00178   0.00490  -0.00272  -0.00056  -0.00179
 127 9   C  1S         -0.01798  -0.00419  -0.00037  -0.00058  -0.00038
 128        2S          0.03972   0.00899   0.00068   0.00160   0.00074
 129        2PX         0.05715  -0.05423  -0.02532  -0.00090  -0.03097
 130        2PY         0.07295   0.17034   0.06046   0.00927   0.07435
 131        2PZ        -0.03094  -0.14341  -0.05643  -0.00815  -0.06939
 132        3S          0.06941   0.01597   0.00287   0.00034   0.00452
 133        3PX         0.02347  -0.04294  -0.01641   0.00003  -0.02398
 134        3PY         0.04474   0.11082   0.03910   0.00555   0.05451
 135        3PZ        -0.01301  -0.09421  -0.03370  -0.00818  -0.04892
 136        4S         -0.05629   0.01859   0.09488   0.00523  -0.03073
 137        4PX         0.01388  -0.01993  -0.08763   0.02037   0.04320
 138        4PY        -0.01072   0.02087  -0.01441   0.00976   0.05402
 139        4PZ        -0.02329   0.00168   0.03178  -0.03228  -0.03811
 140        5XX         0.00087   0.00610   0.00051  -0.00595  -0.00729
 141        5YY        -0.00007  -0.00065   0.00291   0.00371   0.00656
 142        5ZZ        -0.00353  -0.00602  -0.00345   0.00229   0.00075
 143        5XY         0.00138  -0.00681  -0.00134   0.00700   0.00791
 144        5XZ         0.00021   0.00565  -0.00042  -0.00667  -0.00868
 145        5YZ        -0.00202   0.00303   0.00049  -0.00352  -0.00395
 146 10  H  1S          0.01909   0.00416  -0.00020   0.00056   0.00025
 147        2S          0.03084   0.00469  -0.00103   0.00137   0.00068
 148        3S          0.01007  -0.00876  -0.00531   0.00713   0.00358
 149        4PX        -0.00049  -0.00197  -0.00052   0.00117   0.00132
 150        4PY         0.00047   0.00463   0.00122  -0.00284  -0.00311
 151        4PZ        -0.00041  -0.00430  -0.00116   0.00264   0.00289
 152 11  C  1S         -0.00418  -0.00036   0.00017   0.00019   0.00039
 153        2S          0.00944   0.00104  -0.00019  -0.00061  -0.00087
 154        2PX         0.01392   0.01608  -0.02387   0.00769   0.00409
 155        2PY         0.02999  -0.02745   0.04806  -0.01643  -0.01063
 156        2PZ        -0.00640   0.02693  -0.04895   0.01847   0.01282
 157        3S          0.01652   0.00057  -0.00226   0.00019  -0.00141
 158        3PX         0.00934   0.00840  -0.01522   0.00318  -0.00056
 159        3PY         0.01822  -0.01741   0.02839  -0.00536   0.00166
 160        3PZ        -0.00506   0.01504  -0.02955   0.00848   0.00180
 161        4S         -0.00963  -0.00408   0.00145  -0.00111   0.01331
 162        4PX        -0.00712   0.00099  -0.00589   0.00344   0.01295
 163        4PY         0.00630   0.00119   0.01906  -0.01095  -0.01028
 164        4PZ        -0.00045  -0.00265  -0.01498   0.01734   0.00675
 165        5XX         0.00038  -0.00086   0.00557  -0.00397  -0.00412
 166        5YY        -0.00265   0.00233  -0.01362   0.00998   0.01062
 167        5ZZ         0.00161  -0.00143   0.00810  -0.00603  -0.00644
 168        5XY         0.00016   0.00026  -0.00225   0.00160   0.00162
 169        5XZ         0.00299  -0.00144   0.00953  -0.00696  -0.00731
 170        5YZ         0.00135  -0.00028   0.00268  -0.00200  -0.00213
 171 12  C  1S          0.00084  -0.00007  -0.00030   0.00010   0.00012
 172        2S         -0.00209   0.00017   0.00090  -0.00057  -0.00043
 173        2PX        -0.00664  -0.00174  -0.02176   0.01019   0.00717
 174        2PY         0.01944   0.00821   0.04268  -0.01812  -0.01134
 175        2PZ        -0.01370  -0.00697  -0.04378   0.01875   0.01176
 176        3S         -0.00609   0.00043   0.00050   0.00086   0.00021
 177        3PX        -0.00124  -0.00121  -0.01376   0.00498   0.00160
 178        3PY         0.01401   0.00573   0.02553  -0.00721   0.00053
 179        3PZ        -0.00821  -0.00413  -0.02526   0.00763   0.00033
 180        4S         -0.01312   0.00750  -0.00934  -0.04118  -0.02627
 181        4PX         0.00140   0.00648  -0.01104  -0.01083  -0.00613
 182        4PY         0.00714  -0.00538   0.02096  -0.00826  -0.00739
 183        4PZ        -0.00195   0.00299  -0.01320   0.02538   0.01913
 184        5XX        -0.00053   0.00004  -0.00127   0.00100   0.00116
 185        5YY         0.00379  -0.00058   0.01411  -0.01063  -0.01120
 186        5ZZ        -0.00346   0.00057  -0.01280   0.00953   0.01001
 187        5XY         0.00035   0.00001  -0.00168   0.00127   0.00131
 188        5XZ        -0.00054   0.00042  -0.00598   0.00454   0.00484
 189        5YZ        -0.00030   0.00006  -0.00056   0.00047   0.00053
 190 13  C  1S         -0.02553  -0.00017   0.00146   0.00019   0.00046
 191        2S          0.05714   0.00131  -0.00274  -0.00034  -0.00064
 192        2PX         0.12349   0.03645   0.06031  -0.04165   0.03559
 193        2PY         0.10483  -0.01536  -0.12940   0.09520  -0.07565
 194        2PZ         0.00231   0.06476   0.12550  -0.07762   0.07120
 195        3S          0.00279  -0.01059  -0.01234   0.00039  -0.01177
 196        3PX         0.02314   0.02255   0.04402  -0.04147   0.02658
 197        3PY         0.02951  -0.01108  -0.08336   0.05840  -0.05640
 198        3PZ        -0.00684   0.02383   0.07083  -0.04594   0.04325
 199        4S          0.38068  -0.27015  -0.20619   0.41086  -0.05544
 200        4PX         0.30855  -0.11024   0.02608   0.29088   0.00431
 201        4PY         0.08782  -0.05311  -0.02832   0.09296  -0.01314
 202        4PZ        -0.06143  -0.00976  -0.01801  -0.04925  -0.01097
 203        5XX         0.00855   0.00188   0.00606   0.00380   0.01140
 204        5YY        -0.00417  -0.00381  -0.00661   0.00119  -0.00728
 205        5ZZ        -0.00888   0.00156   0.00052  -0.00502  -0.00429
 206        5XY         0.00199   0.00070  -0.00591  -0.00436  -0.01226
 207        5XZ        -0.00227   0.00136   0.00630   0.00220   0.01059
 208        5YZ        -0.00653  -0.00138   0.00191   0.00204   0.00511
 209 14  H  1S         -0.00659  -0.00475   0.00015   0.00011   0.00028
 210        2S         -0.01994  -0.00658   0.00047  -0.00198   0.00052
 211        3S         -0.01236   0.01597   0.00866  -0.01471   0.00903
 212        4PX         0.00053  -0.00159  -0.00054  -0.00013  -0.00083
 213        4PY         0.00197   0.00424   0.00130   0.00035   0.00195
 214        4PZ        -0.00016  -0.00375  -0.00116  -0.00026  -0.00176
 215 15  H  1S         -0.01700   0.02129  -0.06255   0.03620   0.03511
 216        2S         -0.01695   0.01204  -0.07776   0.06256   0.07034
 217        3S         -0.00005   0.02576   0.00594  -0.01577  -0.01410
 218        4PX         0.00067  -0.00072   0.00090  -0.00021  -0.00010
 219        4PY        -0.00002   0.00057  -0.00066   0.00006  -0.00010
 220        4PZ        -0.00017   0.00061  -0.00047  -0.00004  -0.00015
 221 16  H  1S         -0.00582   0.00063  -0.00532   0.00353   0.00361
 222        2S         -0.00827   0.00075  -0.00633   0.00409   0.00526
 223        3S          0.00001   0.00141   0.00490   0.00134   0.01226
 224        4PX         0.00010   0.00039  -0.00067   0.00021   0.00014
 225        4PY         0.00060  -0.00060   0.00122  -0.00052  -0.00042
 226        4PZ        -0.00011   0.00056  -0.00099   0.00037   0.00024
 227 17  H  1S          0.01424  -0.02236   0.06685  -0.03938  -0.03826
 228        2S          0.01845  -0.01735   0.08322  -0.06439  -0.07240
 229        3S         -0.00765  -0.02114  -0.00247   0.01094   0.00497
 230        4PX         0.00039   0.00046  -0.00042   0.00012   0.00007
 231        4PY         0.00020  -0.00019  -0.00014   0.00029   0.00038
 232        4PZ         0.00020  -0.00094   0.00109  -0.00020  -0.00001
 233 18  H  1S          0.01920   0.00210   0.05992  -0.03775  -0.03609
 234        2S          0.01829  -0.00478   0.07883  -0.06199  -0.07006
 235        3S          0.00882   0.02439  -0.00559   0.01865   0.01829
 236        4PX        -0.00045  -0.00057  -0.00064   0.00015  -0.00003
 237        4PY        -0.00013  -0.00011  -0.00050   0.00006  -0.00007
 238        4PZ         0.00021   0.00026   0.00046  -0.00026  -0.00022
 239 19  H  1S         -0.00226  -0.00103   0.00357  -0.00259  -0.00255
 240        2S         -0.00237  -0.00061   0.00377  -0.00328  -0.00354
 241        3S         -0.00337   0.00278  -0.00892  -0.01575  -0.01533
 242        4PX        -0.00016  -0.00007  -0.00038   0.00015   0.00008
 243        4PY         0.00045   0.00018   0.00109  -0.00055  -0.00043
 244        4PZ        -0.00031  -0.00014  -0.00104   0.00046   0.00030
 245 20  H  1S         -0.01720  -0.00103  -0.06329   0.04004   0.03837
 246        2S         -0.01948   0.00428  -0.08199   0.06615   0.07292
 247        3S          0.00854  -0.02378   0.01671  -0.00532  -0.00209
 248        4PX         0.00040   0.00056   0.00086  -0.00023   0.00002
 249        4PY        -0.00003   0.00004  -0.00028   0.00030   0.00037
 250        4PZ         0.00016  -0.00015   0.00018   0.00000   0.00006
 251 21  C  1S          0.01265   0.00346   0.00181  -0.00271   0.00067
 252        2S         -0.02018  -0.00663  -0.00408   0.00475  -0.00159
 253        2PX        -0.09520  -0.02013   0.06481   0.00073   0.07969
 254        2PY        -0.19697  -0.05463  -0.17312   0.00525  -0.19861
 255        2PZ        -0.23561   0.03182   0.14582  -0.01162   0.15713
 256        3S          0.00359  -0.03136  -0.01496   0.02626  -0.00361
 257        3PX        -0.04192  -0.01008   0.04185   0.00341   0.05718
 258        3PY        -0.07335  -0.03325  -0.11905  -0.00956  -0.15362
 259        3PZ        -0.09251   0.03387   0.10119  -0.00568   0.11950
 260        4S          0.25276  -0.20819  -0.23103   0.27125  -0.01147
 261        4PX         0.07759  -0.18381  -0.02122   0.23543   0.04586
 262        4PY         0.04818  -0.02118  -0.04412  -0.02581  -0.08510
 263        4PZ        -0.00257   0.11914   0.08040  -0.13206   0.03860
 264        5XX         0.00870   0.00002  -0.00225   0.00408  -0.00153
 265        5YY        -0.00420   0.00053   0.00543  -0.00344   0.00503
 266        5ZZ        -0.00741  -0.00051  -0.00303  -0.00107  -0.00347
 267        5XY         0.00054   0.00168   0.00167  -0.00499   0.00091
 268        5XZ        -0.00177  -0.00141  -0.00371   0.00402  -0.00292
 269        5YZ        -0.00836  -0.00150  -0.00029   0.00225   0.00020
 270 22  H  1S         -0.05280  -0.02443  -0.01088  -0.00247  -0.00742
 271        2S         -0.08049  -0.01773  -0.00700  -0.00601  -0.00780
 272        3S          0.00398  -0.03183  -0.01668   0.02702  -0.02057
 273        4PX         0.00206   0.00119   0.00158  -0.00110   0.00092
 274        4PY         0.00167  -0.00109  -0.00338   0.00225  -0.00201
 275        4PZ        -0.00031  -0.00052   0.00204  -0.00162   0.00138
 276 23  C  1S         -0.01047  -0.00010   0.00021   0.00083  -0.00022
 277        2S          0.02371  -0.00026  -0.00073  -0.00162   0.00009
 278        2PX        -0.03385   0.01006   0.02191   0.02294   0.01064
 279        2PY         0.00980   0.01581  -0.03728  -0.07426  -0.01539
 280        2PZ         0.05270  -0.00390   0.02383   0.05015   0.00928
 281        3S          0.03918   0.00683   0.00390  -0.00800   0.00824
 282        3PX        -0.01019  -0.01723   0.00148   0.02131   0.00541
 283        3PY        -0.00661   0.00583  -0.01679  -0.04115  -0.00715
 284        3PZ         0.00668   0.00031   0.01601   0.02456   0.01048
 285        4S          0.14364  -0.01861  -0.01749  -0.01193   0.02189
 286        4PX         0.54417  -0.36285  -0.24063   0.55073  -0.04860
 287        4PY         0.10879  -0.05146   0.02202   0.16469   0.00995
 288        4PZ        -0.13595   0.09032   0.05857  -0.14372   0.01818
 289        5XX         0.00711   0.00245  -0.00223   0.00465  -0.00842
 290        5YY        -0.00108  -0.00560  -0.01118  -0.01130  -0.00084
 291        5ZZ        -0.00731   0.00348   0.01358   0.00666   0.00928
 292        5XY        -0.00063   0.00511   0.00784  -0.00649   0.01332
 293        5XZ        -0.00698   0.00848   0.00565   0.00516  -0.00346
 294        5YZ        -0.00626  -0.00314  -0.00697  -0.00103  -0.00683
 295 24  H  1S         -0.21135  -0.01186   0.00339  -0.00099   0.00071
 296        2S         -0.18797  -0.01146   0.00153  -0.00057   0.00087
 297        3S         -0.11545  -0.01112  -0.05302  -0.02519  -0.03224
 298        4PX        -0.00142  -0.00024   0.00167   0.00005   0.00222
 299        4PY         0.00508  -0.00113  -0.00446   0.00012  -0.00522
 300        4PZ         0.00631   0.00143   0.00324  -0.00010   0.00387
 301 25  C  1S         -0.00075  -0.00484  -0.00219   0.00137  -0.00074
 302        2S          0.00110   0.01018   0.00482  -0.00293   0.00195
 303        2PX        -0.01865  -0.01077   0.01451   0.08027  -0.05464
 304        2PY         0.03178  -0.06365  -0.07522  -0.18966   0.13026
 305        2PZ         0.00676   0.03525   0.04462   0.12894  -0.08891
 306        3S          0.01592   0.02697   0.00706  -0.00937   0.00005
 307        3PX        -0.00983  -0.00965   0.01173   0.05896  -0.03768
 308        3PY         0.02232  -0.04984  -0.05849  -0.14474   0.10429
 309        3PZ         0.00066   0.02525   0.03298   0.09834  -0.06855
 310        4S         -0.21387   0.23480   0.02587  -0.49790  -0.05870
 311        4PX         0.25468  -0.19708  -0.06506   0.32276   0.01291
 312        4PY         0.03651  -0.12337  -0.11309   0.01779   0.04161
 313        4PZ        -0.09478  -0.04354  -0.03433   0.04046  -0.10352
 314        5XX        -0.00065   0.00061   0.00015   0.00056  -0.00213
 315        5YY         0.00049  -0.00040   0.00233   0.00435  -0.00104
 316        5ZZ         0.00006  -0.00032  -0.00247  -0.00491   0.00320
 317        5XY         0.00047   0.00013  -0.00036  -0.00264   0.00420
 318        5XZ         0.00037   0.00052  -0.00087  -0.00078  -0.00149
 319        5YZ         0.00035  -0.00030   0.00093   0.00311  -0.00286
 320 26  O  1S          0.00487  -0.00312  -0.00222  -0.00028  -0.00082
 321        2S         -0.01289   0.00789   0.00556   0.00017   0.00209
 322        2PX         0.12484  -0.13977  -0.11713   0.00439  -0.05491
 323        2PY        -0.04264   0.06066   0.14173   0.07967   0.06184
 324        2PZ        -0.05409  -0.04644  -0.08944  -0.05819  -0.03483
 325        3S         -0.01414   0.00603   0.00695   0.00294   0.00437
 326        3PX         0.09374  -0.09764  -0.08428   0.00115  -0.04072
 327        3PY        -0.02598   0.04264   0.10380   0.06348   0.04583
 328        3PZ        -0.03717  -0.03070  -0.06520  -0.04525  -0.02597
 329        4S         -0.02167   0.00208   0.00095   0.00039  -0.00419
 330        4PX        -0.01446  -0.00231  -0.00215  -0.01537   0.00314
 331        4PY        -0.01082   0.00791   0.02167   0.01826   0.00741
 332        4PZ        -0.00019  -0.00927  -0.01995  -0.01502  -0.00959
 333        5XX         0.00346  -0.00246  -0.00319  -0.00020  -0.00178
 334        5YY        -0.00191   0.00420   0.00622   0.00096   0.00294
 335        5ZZ        -0.00036  -0.00220  -0.00348  -0.00090  -0.00152
 336        5XY         0.00219  -0.00268  -0.00005   0.00164   0.00011
 337        5XZ         0.00154  -0.00399  -0.00431  -0.00020  -0.00219
 338        5YZ        -0.00147   0.00116   0.00127  -0.00019   0.00055
 339 27  C  1S          0.00284   0.00081   0.00025   0.00016  -0.00023
 340        2S         -0.00552  -0.00137  -0.00025  -0.00061   0.00083
 341        2PX         0.01211   0.01766   0.02135   0.04332  -0.03095
 342        2PY         0.00606  -0.02928  -0.06279  -0.13669   0.09475
 343        2PZ        -0.02716   0.01444   0.03960   0.08645  -0.05970
 344        3S         -0.00565  -0.00118  -0.00152   0.00046  -0.00019
 345        3PX         0.00208   0.00915   0.01403   0.02625  -0.02055
 346        3PY         0.00321  -0.01250  -0.03457  -0.08104   0.05959
 347        3PZ        -0.01198   0.01066   0.02495   0.05335  -0.03991
 348        4S         -0.35674   0.10213  -0.07926  -0.29108  -0.01036
 349        4PX         0.30346  -0.10399  -0.12479   0.14195   0.02850
 350        4PY         0.04982  -0.01459  -0.02878   0.03578  -0.01947
 351        4PZ        -0.10023   0.04975   0.02455  -0.06890   0.01779
 352        5XX         0.00028  -0.00188  -0.00019  -0.00146   0.00138
 353        5YY        -0.00224   0.00566  -0.00386  -0.01505   0.01040
 354        5ZZ         0.00252  -0.00372   0.00408   0.01655  -0.01173
 355        5XY        -0.00252   0.00516   0.00206   0.00373  -0.00322
 356        5XZ         0.00089  -0.00221   0.00167   0.00386  -0.00236
 357        5YZ         0.00046  -0.00007  -0.00270  -0.00858   0.00632
 358 28  C  1S         -0.00674   0.00079   0.00099  -0.00063   0.00096
 359        2S          0.01487  -0.00138  -0.00201   0.00140  -0.00200
 360        2PX        -0.01702   0.00969  -0.01215  -0.01389   0.00187
 361        2PY         0.00023  -0.01321   0.04046   0.02992   0.00544
 362        2PZ        -0.01093   0.01365  -0.02418  -0.02387  -0.00089
 363        3S          0.02911  -0.00100  -0.00371   0.00114  -0.00633
 364        3PX         0.00665   0.00921  -0.00844  -0.01238   0.00081
 365        3PY         0.01717  -0.01174   0.02269   0.02829  -0.00643
 366        3PZ         0.00554   0.01143  -0.01700  -0.02070   0.00324
 367        4S         -0.11466   0.24201   0.23846  -0.22193   0.03814
 368        4PX        -0.10108   0.04659   0.02250  -0.13236  -0.04769
 369        4PY        -0.04700   0.00423   0.01184  -0.03306  -0.04662
 370        4PZ        -0.02162  -0.01667  -0.04041  -0.03303  -0.01998
 371        5XX        -0.00019  -0.00136  -0.00277  -0.00500   0.00261
 372        5YY        -0.00123   0.00404   0.00634   0.01322  -0.00837
 373        5ZZ         0.00150  -0.00251  -0.00344  -0.00829   0.00578
 374        5XY        -0.00082   0.00268   0.00386   0.00485  -0.00209
 375        5XZ         0.00130  -0.00158  -0.00393  -0.00828   0.00489
 376        5YZ         0.00047   0.00035   0.00043   0.00244  -0.00211
 377 29  H  1S          0.00221   0.00273  -0.00214  -0.00246   0.00104
 378        2S          0.02365  -0.00569  -0.00859  -0.00063  -0.00425
 379        3S         -0.00340   0.00971   0.00770  -0.00360   0.00529
 380        4PX        -0.00583   0.00464   0.00085  -0.00410   0.00237
 381        4PY        -0.00053  -0.00038   0.00354   0.00611  -0.00276
 382        4PZ         0.00135  -0.00074  -0.00287  -0.00358   0.00143
 383 30  C  1S          0.00021  -0.00232  -0.00062   0.00113  -0.00067
 384        2S         -0.00009   0.00527   0.00139  -0.00258   0.00172
 385        2PX         0.01063  -0.03259   0.00585   0.03424  -0.02019
 386        2PY        -0.03008   0.07104  -0.02374  -0.09040   0.05334
 387        2PZ         0.02589  -0.05378   0.01348   0.06207  -0.03685
 388        3S         -0.00892   0.00809   0.00304  -0.00413   0.00327
 389        3PX         0.00647  -0.01926   0.00719   0.02639  -0.01549
 390        3PY        -0.02279   0.04755  -0.02201  -0.07258   0.04299
 391        3PZ         0.01274  -0.03348   0.01383   0.04827  -0.02759
 392        4S         -0.01283   0.03146   0.10610   0.05506  -0.01728
 393        4PX         0.06184  -0.02997  -0.05137   0.02542   0.00273
 394        4PY         0.09160  -0.02662  -0.06081   0.00992   0.03482
 395        4PZ         0.12413  -0.04884  -0.04445   0.08061  -0.00909
 396        5XX        -0.00035  -0.00059  -0.00156  -0.00357   0.00258
 397        5YY        -0.00190   0.00511   0.00397   0.00602  -0.00433
 398        5ZZ         0.00216  -0.00485  -0.00249  -0.00228   0.00175
 399        5XY         0.00031  -0.00003   0.00183   0.00484  -0.00345
 400        5XZ         0.00148  -0.00163  -0.00243  -0.00474   0.00333
 401        5YZ        -0.00050   0.00204   0.00060  -0.00004  -0.00001
 402 31  O  1S          0.00479  -0.00114  -0.00154  -0.00018  -0.00010
 403        2S         -0.00965   0.00267   0.00336   0.00035   0.00020
 404        2PX         0.03575  -0.01589  -0.03624  -0.05860   0.04016
 405        2PY         0.05424  -0.08388   0.04431   0.20582  -0.14474
 406        2PZ        -0.01701   0.05759  -0.02710  -0.12891   0.09106
 407        3S         -0.02720   0.00735   0.00914   0.00085   0.00092
 408        3PX         0.02590  -0.01142  -0.02750  -0.04503   0.03033
 409        3PY         0.03540  -0.05578   0.03523   0.15299  -0.10896
 410        3PZ        -0.01411   0.03944  -0.02084  -0.09609   0.06808
 411        4S          0.00647  -0.00283  -0.00057   0.00729  -0.00074
 412        4PX         0.00287  -0.00121  -0.00643  -0.01211   0.00906
[...]
     4  C    0.125008   0.025788  -0.085274   0.005804  -0.006088   0.011214
     5  C    0.072520  -0.020165   0.038948  -0.038311   0.002466   0.005439
     6  N    0.004661   0.000473  -0.000226  -0.002053   0.012650   0.016799
     7  C   -0.287669  -0.053839   0.003745   0.006898   0.008398   0.006144
     8  H   -0.053839   0.088310  -0.009684   0.000646   0.000256  -0.000413
     9  C    0.003745  -0.009684   0.075056  -0.020499   0.036063  -0.003559
    10  H    0.006898   0.000646  -0.020499   0.012885  -0.000010  -0.000873
    11  C    0.008398   0.000256   0.036063  -0.000010  -0.011026  -0.010770
    12  C    0.006144  -0.000413  -0.003559  -0.000873  -0.010770  -0.019397
    13  C   -0.169896  -0.033356   0.012685   0.000797  -0.002625   0.000526
    14  H   -0.032335  -0.000476   0.024529  -0.000681   0.000095   0.000126
    15  H   -0.000946   0.000123  -0.003030   0.001392   0.005181  -0.000823
    16  H    0.000539  -0.000037   0.000831  -0.000154  -0.000777   0.000999
    17  H    0.000588  -0.000184   0.007217   0.000569   0.006237   0.000717
    18  H    0.000658  -0.000211   0.002680   0.000033  -0.000021   0.005465
    19  H    0.000065  -0.000067  -0.001892  -0.000134   0.000759  -0.001732
    20  H   -0.000015   0.000674  -0.000799   0.000314  -0.000165   0.005806
    21  C   -0.056184  -0.002702   0.029523  -0.000269  -0.000351  -0.000920
    22  H   -0.009393  -0.001207  -0.012772   0.000195   0.000128   0.000019
    23  C    0.053307   0.016785   0.033058   0.000530  -0.000109  -0.001328
    24  H    0.020237  -0.020938   0.006811  -0.000189   0.000055   0.000240
    25  C    0.019897   0.014575  -0.000081   0.000055   0.000015  -0.000131
    26  O   -0.005763  -0.000094   0.002029  -0.000004   0.000002   0.000002
    27  C    0.013205   0.000544  -0.006655   0.000028  -0.000005  -0.000006
    28  C   -0.014861   0.004419  -0.004686   0.000016  -0.000007  -0.000032
    29  H    0.000101   0.000036  -0.000192   0.000003   0.000000   0.000000
    30  C   -0.000140   0.000497  -0.000403   0.000002   0.000000   0.000000
    31  O   -0.000038  -0.000029   0.000215   0.000000   0.000000   0.000000
    32  C    0.003428  -0.005724  -0.001029  -0.000003  -0.000002   0.000021
    33  H   -0.001041   0.001391  -0.000628   0.000006   0.000000  -0.000039
    34  C   -0.001395  -0.000427  -0.000181   0.000000   0.000000  -0.000002
    35  H    0.000041   0.000008  -0.000018   0.000000   0.000000   0.000000
    36  H    0.000221  -0.000009   0.000023   0.000000   0.000000   0.000001
    37  H   -0.000049   0.000008  -0.000001   0.000000   0.000000   0.000000
              13         14         15         16         17         18
     1  C   -0.015377  -0.006232   0.007671  -0.002226  -0.005326  -0.000183
     2  C   -0.031147  -0.012503   0.001120   0.004593  -0.009055   0.000246
     3  H    0.006428   0.000306  -0.000213   0.000418   0.000230   0.000912
     4  C   -0.157805  -0.019276   0.001405  -0.000497  -0.001735  -0.005357
     5  C    0.047761   0.029775   0.000880   0.001225   0.011631   0.006432
     6  N   -0.000252   0.000305  -0.020595  -0.000588  -0.022216  -0.020295
     7  C   -0.169896  -0.032335  -0.000946   0.000539   0.000588   0.000658
     8  H   -0.033356  -0.000476   0.000123  -0.000037  -0.000184  -0.000211
     9  C    0.012685   0.024529  -0.003030   0.000831   0.007217   0.002680
    10  H    0.000797  -0.000681   0.001392  -0.000154   0.000569   0.000033
    11  C   -0.002625   0.000095   0.005181  -0.000777   0.006237  -0.000021
    12  C    0.000526   0.000126  -0.000823   0.000999   0.000717   0.005465
    13  C   -0.315279   0.000705   0.000041  -0.000245   0.000360  -0.000341
    14  H    0.000705   0.034432   0.000083   0.000014  -0.000186  -0.000001
    15  H    0.000041   0.000083   0.051340   0.001937  -0.018069  -0.000598
    16  H   -0.000245   0.000014   0.001937   0.008983  -0.000185  -0.000832
    17  H    0.000360  -0.000186  -0.018069  -0.000185   0.056512   0.002183
    18  H   -0.000341  -0.000001  -0.000598  -0.000832   0.002183   0.052827
    19  H   -0.000020   0.000021  -0.000586   0.001968  -0.000788   0.000266
    20  H   -0.000101  -0.000072   0.001927  -0.000769  -0.000963  -0.017593
    21  C    0.172800  -0.001399  -0.000235  -0.000018   0.000313   0.000806
    22  H    0.091171  -0.004689  -0.000013   0.000009  -0.000004  -0.000015
    23  C    0.244423   0.010368  -0.000337  -0.000016   0.000303   0.000574
    24  H    0.083757   0.000135  -0.000008   0.000005   0.000029   0.000025
    25  C    0.181338   0.001974  -0.000066   0.000000   0.000054   0.000196
    26  O   -0.018407  -0.000018  -0.000001   0.000000  -0.000001  -0.000001
    27  C    0.023487   0.000248  -0.000005   0.000000   0.000005   0.000015
    28  C    0.058516   0.000029   0.000009   0.000000  -0.000007  -0.000035
    29  H    0.001495  -0.000010   0.000000   0.000000   0.000000   0.000000
    30  C    0.010574  -0.000026   0.000000   0.000000   0.000000   0.000000
    31  O   -0.002403   0.000006   0.000000   0.000000   0.000000   0.000000
    32  C   -0.084008  -0.000101   0.000003   0.000000  -0.000002  -0.000030
    33  H   -0.014112   0.000008  -0.000004   0.000000   0.000002   0.000016
    34  C    0.025531   0.000023   0.000000   0.000000   0.000000   0.000001
    35  H   -0.000831  -0.000001   0.000000   0.000000   0.000000   0.000000
    36  H   -0.000385   0.000000   0.000000   0.000000   0.000000  -0.000001
    37  H    0.000527   0.000000   0.000000   0.000000   0.000000   0.000000
              19         20         21         22         23         24
     1  C    0.001616   0.016352  -0.027055  -0.003031   0.010275  -0.019369
     2  C    0.009200  -0.012746   0.033412   0.006840   0.002061   0.003430
     3  H   -0.000550   0.001287  -0.004974  -0.000042  -0.003297   0.002177
     4  C    0.000910   0.005207  -0.018126   0.018325   0.133269  -0.011762
     5  C   -0.004826  -0.001534   0.022440   0.005695  -0.044024   0.010788
     6  N   -0.000054  -0.022293  -0.000003  -0.000105  -0.000073  -0.000070
     7  C    0.000065  -0.000015  -0.056184  -0.009393   0.053307   0.020237
     8  H   -0.000067   0.000674  -0.002702  -0.001207   0.016785  -0.020938
     9  C   -0.001892  -0.000799   0.029523  -0.012772   0.033058   0.006811
    10  H   -0.000134   0.000314  -0.000269   0.000195   0.000530  -0.000189
    11  C    0.000759  -0.000165  -0.000351   0.000128  -0.000109   0.000055
    12  C   -0.001732   0.005806  -0.000920   0.000019  -0.001328   0.000240
    13  C   -0.000020  -0.000101   0.172800   0.091171   0.244423   0.083757
    14  H    0.000021  -0.000072  -0.001399  -0.004689   0.010368   0.000135
    15  H   -0.000586   0.001927  -0.000235  -0.000013  -0.000337  -0.000008
    16  H    0.001968  -0.000769  -0.000018   0.000009  -0.000016   0.000005
    17  H   -0.000788  -0.000963   0.000313  -0.000004   0.000303   0.000029
    18  H    0.000266  -0.017593   0.000806  -0.000015   0.000574   0.000025
    19  H    0.010710   0.000996  -0.000087  -0.000004  -0.000068   0.000019
    20  H    0.000996   0.053449  -0.000440   0.000041  -0.000362  -0.000162
    21  C   -0.000087  -0.000440  -0.284796   0.041158  -0.293084   0.059289
    22  H   -0.000004   0.000041   0.041158   0.023687  -0.083004   0.000829
    23  C   -0.000068  -0.000362  -0.293084  -0.083004  -0.064714  -0.053493
    24  H    0.000019  -0.000162   0.059289   0.000829  -0.053493  -0.003540
    25  C   -0.000008  -0.000125   0.330208  -0.052998   0.050765  -0.106873
    26  O    0.000000   0.000000   0.060410  -0.005836   0.031967  -0.003209
    27  C    0.000000  -0.000012  -0.006717  -0.010943   0.027547  -0.023683
    28  C    0.000000   0.000026  -0.035982  -0.001869  -0.077636  -0.005331
    29  H    0.000000   0.000000  -0.000491   0.000182   0.021527  -0.000255
    30  C    0.000000   0.000000  -0.018338   0.000076  -0.010541  -0.008959
    31  O    0.000000   0.000000   0.002535  -0.000585  -0.015485   0.000274
    32  C    0.000001   0.000016  -0.156121   0.001935  -0.067298   0.044914
    33  H   -0.000003   0.000001  -0.018890  -0.000063  -0.004152   0.002832
    34  C    0.000000  -0.000001   0.035166  -0.000765   0.027677   0.002811
    35  H    0.000000   0.000000  -0.001510   0.000013  -0.005750  -0.000053
    36  H    0.000000   0.000001   0.001022   0.000014   0.000946  -0.000449
    37  H    0.000000   0.000000   0.001365  -0.000002   0.002921  -0.000102
              25         26         27         28         29         30
     1  C    0.002084  -0.000783   0.002087   0.005985   0.000039   0.000081
     2  C    0.004596   0.000420  -0.000395   0.000033  -0.000037  -0.000006
     3  H   -0.001877   0.000011  -0.000070  -0.000189  -0.000001  -0.000010
     4  C    0.075633  -0.001398   0.007232   0.014821  -0.000140   0.001401
     5  C   -0.001826   0.002935  -0.002538  -0.002791  -0.000074  -0.000108
     6  N   -0.000044  -0.000001  -0.000002   0.000006   0.000000   0.000000
     7  C    0.019897  -0.005763   0.013205  -0.014861   0.000101  -0.000140
     8  H    0.014575  -0.000094   0.000544   0.004419   0.000036   0.000497
     9  C   -0.000081   0.002029  -0.006655  -0.004686  -0.000192  -0.000403
    10  H    0.000055  -0.000004   0.000028   0.000016   0.000003   0.000002
    11  C    0.000015   0.000002  -0.000005  -0.000007   0.000000   0.000000
    12  C   -0.000131   0.000002  -0.000006  -0.000032   0.000000   0.000000
    13  C    0.181338  -0.018407   0.023487   0.058516   0.001495   0.010574
    14  H    0.001974  -0.000018   0.000248   0.000029  -0.000010  -0.000026
    15  H   -0.000066  -0.000001  -0.000005   0.000009   0.000000   0.000000
    16  H    0.000000   0.000000   0.000000   0.000000   0.000000   0.000000
    17  H    0.000054  -0.000001   0.000005  -0.000007   0.000000   0.000000
    18  H    0.000196  -0.000001   0.000015  -0.000035   0.000000   0.000000
    19  H   -0.000008   0.000000   0.000000   0.000000   0.000000   0.000000
    20  H   -0.000125   0.000000  -0.000012   0.000026   0.000000   0.000000
    21  C    0.330208   0.060410  -0.006717  -0.035982  -0.000491  -0.018338
    22  H   -0.052998  -0.005836  -0.010943  -0.001869   0.000182   0.000076
    23  C    0.050765   0.031967   0.027547  -0.077636   0.021527  -0.010541
    24  H   -0.106873  -0.003209  -0.023683  -0.005331  -0.000255  -0.008959
    25  C   -0.554605  -0.045346   0.128843  -0.201365   0.014334   0.067964
    26  O   -0.045346  -0.124801   0.008534   0.001525   0.010074   0.008911
    27  C    0.128843   0.008534  -0.398402   0.277420  -0.039789  -0.076826
    28  C   -0.201365   0.001525   0.277420  -0.405192   0.011135   0.013842
    29  H    0.014334   0.010074  -0.039789   0.011135  -0.006518  -0.009139
    30  C    0.067964   0.008911  -0.076826   0.013842  -0.009139  -0.111176
    31  O   -0.015515   0.019327   0.065195  -0.009091  -0.008211   0.019309
    32  C    0.149186  -0.001552  -0.111585   0.524040   0.001384   0.024634
    33  H    0.017454   0.000548   0.010199   0.046336   0.000025   0.015127
    34  C   -0.086392   0.000699   0.095329  -0.145589  -0.002593   0.060891
    35  H   -0.008806  -0.000085  -0.031607   0.010036   0.000358   0.022309
    36  H   -0.004000  -0.000031   0.001174   0.001154   0.000024   0.000025
    37  H    0.000942   0.000024  -0.002514  -0.005510  -0.000092   0.008375
              31         32         33         34         35         36
     1  C   -0.000046  -0.001234   0.001788   0.000321   0.000002  -0.000074
     2  C    0.000000  -0.000812   0.000188   0.000087  -0.000001  -0.000020
     3  H    0.000000   0.000463  -0.000257  -0.000006   0.000000   0.000009
     4  C   -0.000317  -0.015994  -0.001494   0.003244  -0.000028  -0.000180
     5  C    0.000044  -0.000022  -0.000561  -0.000116  -0.000001   0.000013
     6  N    0.000000   0.000001   0.000002   0.000000   0.000000   0.000000
     7  C   -0.000038   0.003428  -0.001041  -0.001395   0.000041   0.000221
     8  H   -0.000029  -0.005724   0.001391  -0.000427   0.000008  -0.000009
     9  C    0.000215  -0.001029  -0.000628  -0.000181  -0.000018   0.000023
    10  H    0.000000  -0.000003   0.000006   0.000000   0.000000   0.000000
    11  C    0.000000  -0.000002   0.000000   0.000000   0.000000   0.000000
    12  C    0.000000   0.000021  -0.000039  -0.000002   0.000000   0.000001
    13  C   -0.002403  -0.084008  -0.014112   0.025531  -0.000831  -0.000385
    14  H    0.000006  -0.000101   0.000008   0.000023  -0.000001   0.000000
    15  H    0.000000   0.000003  -0.000004   0.000000   0.000000   0.000000
    16  H    0.000000   0.000000   0.000000   0.000000   0.000000   0.000000
    17  H    0.000000  -0.000002   0.000002   0.000000   0.000000   0.000000
    18  H    0.000000  -0.000030   0.000016   0.000001   0.000000  -0.000001
    19  H    0.000000   0.000001  -0.000003   0.000000   0.000000   0.000000
    20  H    0.000000   0.000016   0.000001  -0.000001   0.000000   0.000001
    21  C    0.002535  -0.156121  -0.018890   0.035166  -0.001510   0.001022
    22  H   -0.000585   0.001935  -0.000063  -0.000765   0.000013   0.000014
    23  C   -0.015485  -0.067298  -0.004152   0.027677  -0.005750   0.000946
    24  H    0.000274   0.044914   0.002832   0.002811  -0.000053  -0.000449
    25  C   -0.015515   0.149186   0.017454  -0.086392  -0.008806  -0.004000
    26  O    0.019327  -0.001552   0.000548   0.000699  -0.000085  -0.000031
    27  C    0.065195  -0.111585   0.010199   0.095329  -0.031607   0.001174
    28  C   -0.009091   0.524040   0.046336  -0.145589   0.010036   0.001154
    29  H   -0.008211   0.001384   0.000025  -0.002593   0.000358   0.000024
    30  C    0.019309   0.024634   0.015127   0.060891   0.022309   0.000025
    31  O   -0.112125   0.005377  -0.000066  -0.008892   0.000480  -0.000001
    32  C    0.005377  -0.386339  -0.040544   0.087164  -0.009550   0.016199
    33  H   -0.000066  -0.040544  -0.032615  -0.000350  -0.000153   0.002152
    34  C   -0.008892   0.087164  -0.000350  -0.132253   0.028891  -0.011198
    35  H    0.000480  -0.009550  -0.000153   0.028891  -0.025254   0.000242
    36  H   -0.000001   0.016199   0.002152  -0.011198   0.000242  -0.028689
    37  H   -0.000010   0.009780   0.000434  -0.012767   0.000871   0.000411
              37
     1  C    0.000003
     2  C    0.000001
     3  H   -0.000001
     4  C    0.000069
     5  C   -0.000001
     6  N    0.000000
     7  C   -0.000049
     8  H    0.000008
     9  C   -0.000001
    10  H    0.000000
    11  C    0.000000
    12  C    0.000000
    13  C    0.000527
    14  H    0.000000
    15  H    0.000000
    16  H    0.000000
    17  H    0.000000
    18  H    0.000000
    19  H    0.000000
    20  H    0.000000
    21  C    0.001365
    22  H   -0.000002
    23  C    0.002921
    24  H   -0.000102
    25  C    0.000942
    26  O    0.000024
    27  C   -0.002514
    28  C   -0.005510
    29  H   -0.000092
    30  C    0.008375
    31  O   -0.000010
    32  C    0.009780
    33  H    0.000434
    34  C   -0.012767
    35  H    0.000871
    36  H    0.000411
    37  H   -0.027862
 Mulliken charges:
               1
     1  C    6.010641
     2  C    5.883225
     3  H    0.990515
     4  C    5.934939
     5  C    6.016724
     6  N    6.980690
     7  C    6.142949
     8  H    0.955742
     9  C    5.917417
    10  H    0.992538
    11  C    5.996721
    12  C    6.000522
    13  C    5.883668
    14  H    0.974826
    15  H    0.972418
    16  H    0.984823
    17  H    0.971771
    18  H    0.972179
    19  H    0.984287
    20  H    0.972055
    21  C    6.138243
    22  H    0.997024
    23  C    6.056471
    24  H    1.019788
    25  C    6.019944
    26  O    8.059911
    27  C    6.050664
    28  C    5.940827
    29  H    1.006828
    30  C    5.981650
    31  O    8.060053
    32  C    6.013404
    33  H    1.016464
    34  C    6.035091
    35  H    1.020397
    36  H    1.021408
    37  H    1.023180
 Sum of Mulliken charges = 142.00000
 Mulliken charges with hydrogens summed into heavy atoms:
               1
     1  C    7.001156
     2  C    5.883225
     4  C    6.890682
     5  C    7.009262
     6  N    6.980690
     7  C    6.142949
     9  C    6.892243
    11  C    8.925733
    12  C    8.929044
    13  C    6.880692
    21  C    7.158032
    23  C    6.056471
    25  C    6.019944
    26  O    8.059911
    27  C    6.050664
    28  C    6.957291
    30  C    7.002047
    31  O    9.066881
    32  C    7.034812
    34  C    7.058272
 Electronic spatial extent (au):  <R**2>=            -63.5933
 Charge=              0.0000 electrons
 Dipole moment (field-independent basis, Debye):
    X=             12.8649    Y=              1.1997    Z=             -4.8825  Tot=             13.8125
 Quadrupole moment (field-independent basis, Debye-Ang):
   XX=             70.8163   YY=             -8.5957   ZZ=             23.3146
   XY=            -41.4009   XZ=            -42.1400   YZ=             14.9935
 Traceless Quadrupole moment (field-independent basis, Debye-Ang):
   XX=             42.3046   YY=            -37.1074   ZZ=             -5.1972
   XY=            -41.4009   XZ=            -42.1400   YZ=             14.9935
 Octapole moment (field-independent basis, Debye-Ang**2):
  XXX=            647.6460  YYY=             55.4925  ZZZ=           -131.8776  XYY=            162.8335
  XXY=           -195.7508  XXZ=           -301.6251  XZZ=            195.8187  YZZ=            -80.6183
  YYZ=            -52.5823  XYZ=            142.0846
 Hexadecapole moment (field-independent basis, Debye-Ang**3):
 XXXX=           4973.7176 YYYY=           -353.6707 ZZZZ=            724.3347 XXXY=          -1848.6811
 XXXZ=          -2366.4442 YYYX=           -708.3223 YYYZ=            190.1243 ZZZX=           -973.2804
 ZZZY=            482.6229 XXYY=            682.0105 XXZZ=           1373.7377 YYZZ=            313.3041
 XXYZ=            961.0831 YYXZ=           -565.7071 ZZXY=           -695.4682
 N-N= 1.358388067623D+03 E-N= 2.276616887660D-01  KE= 4.706136053297D-03
 Leave Link  601 at Thu Aug  9 19:43:12 2018, MaxMem=  1879048192 cpu:         0.8
 (Enter /share/apps/gaussian/g09_D01/g09/l9999.exe)
 1\1\GINC-NXN33\SP\RwB97XD TD-FC\6-31++G(d,p)\C17H17N1O2\BTX008\09-Aug-
 2018\0\\#p wb97xd 6-31++G** td=(nstates=1) nosymm Pop=NTO Density=(Tra
 nsition=1)\\Title\\0,1\C,0,-0.045604,-3.212643,-0.673042\C,0,-1.163557
 ,-4.037551,-0.999057\H,0,-0.121291,-2.475288,0.121883\C,0,1.146608,-3.
 335524,-1.348586\C,0,-0.997931,-4.974953,-2.055672\N,0,-2.337452,-3.93
 316,-0.324579\C,0,1.320601,-4.270503,-2.399224\H,0,1.971105,-2.682196,
 -1.060472\C,0,0.202155,-5.074774,-2.725295\H,0,-1.826104,-5.611893,-2.
 356233\C,0,-3.451039,-4.817588,-0.638286\C,0,-2.482782,-2.951131,0.738
 607\C,0,2.5213,-4.396929,-3.164451\H,0,0.299534,-5.792287,-3.54133\H,0
 ,-3.150286,-5.872565,-0.549647\H,0,-4.268925,-4.626441,0.063239\H,0,-3
 .818958,-4.648925,-1.662177\H,0,-2.290162,-1.933406,0.365237\H,0,-3.50
 2453,-2.991283,1.132588\H,0,-1.783201,-3.152381,1.563457\C,0,3.704177,
 -3.730044,-2.976341\H,0,2.47843,-5.091951,-4.010014\C,0,4.824246,-3.90
 4072,-3.862622\H,0,3.810173,-3.042685,-2.139497\C,0,6.116034,-3.241308
 ,-3.594826\O,0,4.72679,-4.644034,-4.908669\C,0,7.196441,-3.444502,-4.5
 05463\C,0,6.35306,-2.418884,-2.472996\H,0,6.047681,-4.528914,-5.530262
 \C,0,8.44931,-2.862065,-4.256098\O,0,7.039043,-4.198267,-5.611204\C,0,
 7.588797,-1.834009,-2.241935\H,0,5.552651,-2.221827,-1.761605\C,0,8.64
 1937,-2.065551,-3.137064\H,0,9.257308,-3.069135,-4.95777\H,0,7.737617,
 -1.196134,-1.371176\H,0,9.619574,-1.619592,-2.947297\\Version=ES64L-G0
 9RevD.01\HF=-862.9990125\RMSD=4.881e-09\PG=C01 [X(C17H17N1O2)]\\@


 QUANTUM MECHANICS IS BOHRING -- M.S. GORDON
 Job cpu time:       0 days  0 hours 57 minutes 12.9 seconds.
 File lengths (MBytes):  RWF=    241 Int=      0 D2E=      0 Chk=     28 Scr=      1
 Normal termination of Gaussian 09 at Thu Aug  9 19:43:12 2018.
