 Entering Gaussian System, Link 0=g09
 Input=H_ap-1.com
 Output=H_ap-1.out
 Initial command:
 /share/apps/gaussian/g09_D01/g09/l1.exe "/tmp/4025740.1.chemistry.q/Gau-5144.inp" -scrdir="/tmp/4025740.1.chemistry.q/"
 Entering Link 1 = /share/apps/gaussian/g09_D01/g09/l1.exe PID=      5145.
  
 Copyright (c) 1988,1990,1992,1993,1995,1998,2003,2009,2013,
            Gaussian, Inc.  All Rights Reserved.
  
 This is part of the Gaussian(R) 09 program.  It is based on
 the Gaussian(R) 03 system (copyright 2003, Gaussian, Inc.),
 the Gaussian(R) 98 system (copyright 1998, Gaussian, Inc.),
 the Gaussian(R) 94 system (copyright 1995, Gaussian, Inc.),
 the Gaussian 92(TM) system (copyright 1992, Gaussian, Inc.),
 the Gaussian 90(TM) system (copyright 1990, Gaussian, Inc.),
 the Gaussian 88(TM) system (copyright 1988, Gaussian, Inc.),
 the Gaussian 86(TM) system (copyright 1986, Carnegie Mellon
 University), and the Gaussian 82(TM) system (copyright 1983,
 Carnegie Mellon University). Gaussian is a federally registered
 trademark of Gaussian, Inc.
  
 This software contains proprietary and confidential information,
 including trade secrets, belonging to Gaussian, Inc.
  
 This software is provided under written license and may be
 used, copied, transmitted, or stored only in accord with that
 written license.
  
 The following legend is applicable only to US Government
 contracts under FAR:
  
                    RESTRICTED RIGHTS LEGEND
  
 Use, reproduction and disclosure by the US Government is
 subject to restrictions as set forth in subparagraphs (a)
 and (c) of the Commercial Computer Software - Restricted
 Rights clause in FAR 52.227-19.
  
 Gaussian, Inc.
 340 Quinnipiac St., Bldg. 40, Wallingford CT 06492
  
  
 ---------------------------------------------------------------
 Warning -- This program may not be used in any manner that
 competes with the business of Gaussian, Inc. or will provide
 assistance to any competitor of Gaussian, Inc.  The licensee
 of this program is prohibited from giving any competitor of
 Gaussian, Inc. access to this program.  By using this program,
 the user acknowledges that Gaussian, Inc. is engaged in the
 business of creating and licensing software in the field of
 computational chemistry and represents and warrants to the
 licensee that it is not a competitor of Gaussian, Inc. and that
 it will not use this program in any manner prohibited above.
 ---------------------------------------------------------------
  

 Cite this work as:
 Gaussian 09, Revision D.01,
 M. J. Frisch, G. W. Trucks, H. B. Schlegel, G. E. Scuseria, 
 M. A. Robb, J. R. Cheeseman, G. Scalmani, V. Barone, B. Mennucci, 
 G. A. Petersson, H. Nakatsuji, M. Caricato, X. Li, H. P. Hratchian, 
 A. F. Izmaylov, J. Bloino, G. Zheng, J. L. Sonnenberg, M. Hada, 
 M. Ehara, K. Toyota, R. Fukuda, J. Hasegawa, M. Ishida, T. Nakajima, 
 Y. Honda, O. Kitao, H. Nakai, T. Vreven, J. A. Montgomery, Jr., 
 J. E. Peralta, F. Ogliaro, M. Bearpark, J. J. Heyd, E. Brothers, 
 K. N. Kudin, V. N. Staroverov, T. Keith, R. Kobayashi, J. Normand, 
 K. Raghavachari, A. Rendell, J. C. Burant, S. S. Iyengar, J. Tomasi, 
 M. Cossi, N. Rega, J. M. Millam, M. Klene, J. E. Knox, J. B. Cross, 
 V. Bakken, C. Adamo, J. Jaramillo, R. Gomperts, R. E. Stratmann, 
 O. Yazyev, A. J. Austin, R. Cammi, C. Pomelli, J. W. Ochterski, 
 R. L. Martin, K. Morokuma, V. G. Zakrzewski, G. A. Voth, 
 P. Salvador, J. J. Dannenberg, S. Dapprich, A. D. Daniels, 
 O. Farkas, J. B. Foresman, J. V. Ortiz, J. Cioslowski, 
 and D. J. Fox, Gaussian, Inc., Wallingford CT, 2013.
 
 ******************************************
 Gaussian 09:  ES64L-G09RevD.01 24-Apr-2013
                 5-Jul-2017 
 ******************************************
 %chk=H_ap-1.chk
 %nproc=2
 Will use up to    2 processors via shared memory.
 %mem=14GB
 ----------------------------------------------------------------------
 #p wb97xd 6-31G* nosymm td=(nstates=2) density=(Transition=1) pop=Save
 NTO
 ----------------------------------------------------------------------
 1/38=1/1;
 2/12=2,15=1,17=6,18=5,40=1/2;
 3/5=1,6=6,7=1,11=9,16=1,25=1,30=1,74=-58/1,2,8,3;
 4//1;
 5/5=2,38=5/2;
 8/6=1,10=2,108=2/1;
 9/41=2,42=1,70=2/14;
 6/7=2,8=2,9=2,10=2,29=1,89=10/1;
 99/5=1,9=1/99;
 Leave Link    1 at Wed Jul  5 11:20:30 2017, MaxMem=  1879048192 cpu:         0.1
 (Enter /share/apps/gaussian/g09_D01/g09/l101.exe)
 -----
 Title
 -----
 Symbolic Z-matrix:
 Charge =  0 Multiplicity = 1
 C                    -2.56105   2.95411   1.80065 
 C                    -1.45361   2.12371   2.11922 
 C                    -2.39512   3.88403   0.74633 
 N                    -3.73509   2.85484   2.47858 
 C                    -0.25734   2.25482   1.45278 
 H                    -1.53551   1.37926   2.89957 
 C                    -1.18956   3.98831   0.08809 
 H                    -3.21932   4.51426   0.44193 
 C                    -3.87422   1.87605   3.53812 
 C                    -4.83908   3.74425   2.16587 
 C                    -0.07965   3.19175   0.41715 
 H                     0.56568   1.61001   1.74609 
 H                    -1.09098   4.71051  -0.71695 
 H                    -3.76078   0.85389   3.15552 
 H                    -4.86203   1.96688   3.98612 
 H                    -3.13454   2.03615   4.33013 
 H                    -4.54422   4.79409   2.27289 
 H                    -5.65797   3.55415   2.85968 
 H                    -5.21201   3.5883    1.1478 
 C                     1.14201   3.33482  -0.3343 
 C                     2.30472   2.65957  -0.16214 
 H                     1.11901   4.06021  -1.14789 
 C                     3.425     2.8882   -1.05961 
 H                     2.40724   1.92844   0.62966 
 C                     4.73058   2.22823  -0.80733 
 O                     3.29766   3.63518  -2.05758 
 C                     5.78411   2.39456  -1.7395 
 C                     4.9796    1.44285   0.33263 
 H                     4.72778   3.52241  -2.78625 
 C                     7.02529   1.78447  -1.5195 
 O                     5.6386    3.12943  -2.85344 
 C                     6.20481   0.83884   0.54392 
 H                     4.20399   1.30228   1.07442 
 C                     7.23118   1.01541  -0.38851 
 H                     7.81394   1.95538  -2.24355 
 H                     6.36747   0.24963   1.43761 
 H                     8.20186   0.56089  -0.21421 
 
 NAtoms=     37 NQM=       37 NQMF=       0 NMMI=      0 NMMIF=      0
                NMic=       0 NMicF=      0.
                    Isotopes and Nuclear Properties:
 (Nuclear quadrupole moments (NQMom) in fm**2, nuclear magnetic moments (NMagM)
  in nuclear magnetons)

  Atom         1           2           3           4           5           6           7           8           9          10
 IAtWgt=          12          12          12          14          12           1          12           1          12          12
 AtmWgt=  12.0000000  12.0000000  12.0000000  14.0030740  12.0000000   1.0078250  12.0000000   1.0078250  12.0000000  12.0000000
 NucSpn=           0           0           0           2           0           1           0           1           0           0
 AtZEff=   0.0000000   0.0000000   0.0000000   0.0000000   0.0000000   0.0000000   0.0000000   0.0000000   0.0000000   0.0000000
 NQMom=    0.0000000   0.0000000   0.0000000   2.0440000   0.0000000   0.0000000   0.0000000   0.0000000   0.0000000   0.0000000
 NMagM=    0.0000000   0.0000000   0.0000000   0.4037610   0.0000000   2.7928460   0.0000000   2.7928460   0.0000000   0.0000000
 AtZNuc=   6.0000000   6.0000000   6.0000000   7.0000000   6.0000000   1.0000000   6.0000000   1.0000000   6.0000000   6.0000000

  Atom        11          12          13          14          15          16          17          18          19          20
 IAtWgt=          12           1           1           1           1           1           1           1           1          12
 AtmWgt=  12.0000000   1.0078250   1.0078250   1.0078250   1.0078250   1.0078250   1.0078250   1.0078250   1.0078250  12.0000000
 NucSpn=           0           1           1           1           1           1           1           1           1           0
 AtZEff=   0.0000000   0.0000000   0.0000000   0.0000000   0.0000000   0.0000000   0.0000000   0.0000000   0.0000000   0.0000000
 NQMom=    0.0000000   0.0000000   0.0000000   0.0000000   0.0000000   0.0000000   0.0000000   0.0000000   0.0000000   0.0000000
 NMagM=    0.0000000   2.7928460   2.7928460   2.7928460   2.7928460   2.7928460   2.7928460   2.7928460   2.7928460   0.0000000
 AtZNuc=   6.0000000   1.0000000   1.0000000   1.0000000   1.0000000   1.0000000   1.0000000   1.0000000   1.0000000   6.0000000

  Atom        21          22          23          24          25          26          27          28          29          30
 IAtWgt=          12           1          12           1          12          16          12          12           1          12
 AtmWgt=  12.0000000   1.0078250  12.0000000   1.0078250  12.0000000  15.9949146  12.0000000  12.0000000   1.0078250  12.0000000
 NucSpn=           0           1           0           1           0           0           0           0           1           0
 AtZEff=   0.0000000   0.0000000   0.0000000   0.0000000   0.0000000   0.0000000   0.0000000   0.0000000   0.0000000   0.0000000
 NQMom=    0.0000000   0.0000000   0.0000000   0.0000000   0.0000000   0.0000000   0.0000000   0.0000000   0.0000000   0.0000000
 NMagM=    0.0000000   2.7928460   0.0000000   2.7928460   0.0000000   0.0000000   0.0000000   0.0000000   2.7928460   0.0000000
 AtZNuc=   6.0000000   1.0000000   6.0000000   1.0000000   6.0000000   8.0000000   6.0000000   6.0000000   1.0000000   6.0000000

  Atom        31          32          33          34          35          36          37
 IAtWgt=          16          12           1          12           1           1           1
 AtmWgt=  15.9949146  12.0000000   1.0078250  12.0000000   1.0078250   1.0078250   1.0078250
 NucSpn=           0           0           1           0           1           1           1
 AtZEff=   0.0000000   0.0000000   0.0000000   0.0000000   0.0000000   0.0000000   0.0000000
 NQMom=    0.0000000   0.0000000   0.0000000   0.0000000   0.0000000   0.0000000   0.0000000
 NMagM=    0.0000000   0.0000000   2.7928460   0.0000000   2.7928460   2.7928460   2.7928460
 AtZNuc=   8.0000000   6.0000000   1.0000000   6.0000000   1.0000000   1.0000000   1.0000000
 Leave Link  101 at Wed Jul  5 11:20:30 2017, MaxMem=  1879048192 cpu:         0.1
 (Enter /share/apps/gaussian/g09_D01/g09/l202.exe)
                          Input orientation:                          
 ---------------------------------------------------------------------
 Center     Atomic      Atomic             Coordinates (Angstroms)
 Number     Number       Type             X           Y           Z
 ---------------------------------------------------------------------
      1          6           0       -2.561045    2.954113    1.800653
      2          6           0       -1.453614    2.123705    2.119220
      3          6           0       -2.395118    3.884027    0.746328
      4          7           0       -3.735091    2.854836    2.478577
      5          6           0       -0.257335    2.254822    1.452784
      6          1           0       -1.535511    1.379261    2.899570
      7          6           0       -1.189555    3.988311    0.088085
      8          1           0       -3.219319    4.514257    0.441933
      9          6           0       -3.874215    1.876051    3.538120
     10          6           0       -4.839077    3.744247    2.165869
     11          6           0       -0.079646    3.191747    0.417146
     12          1           0        0.565679    1.610013    1.746085
     13          1           0       -1.090979    4.710509   -0.716946
     14          1           0       -3.760779    0.853886    3.155524
     15          1           0       -4.862027    1.966878    3.986117
     16          1           0       -3.134539    2.036154    4.330126
     17          1           0       -4.544216    4.794091    2.272894
     18          1           0       -5.657968    3.554154    2.859682
     19          1           0       -5.212008    3.588295    1.147805
     20          6           0        1.142009    3.334818   -0.334298
     21          6           0        2.304719    2.659570   -0.162136
     22          1           0        1.119006    4.060213   -1.147889
     23          6           0        3.424995    2.888199   -1.059609
     24          1           0        2.407243    1.928444    0.629659
     25          6           0        4.730578    2.228227   -0.807332
     26          8           0        3.297663    3.635176   -2.057585
     27          6           0        5.784111    2.394560   -1.739495
     28          6           0        4.979595    1.442845    0.332629
     29          1           0        4.727780    3.522407   -2.786250
     30          6           0        7.025290    1.784468   -1.519498
     31          8           0        5.638602    3.129431   -2.853437
     32          6           0        6.204812    0.838836    0.543916
     33          1           0        4.203990    1.302276    1.074422
     34          6           0        7.231178    1.015415   -0.388505
     35          1           0        7.813944    1.955377   -2.243553
     36          1           0        6.367472    0.249632    1.437610
     37          1           0        8.201859    0.560885   -0.214210
 ---------------------------------------------------------------------
                    Distance matrix (angstroms):
                    1          2          3          4          5
     1  C    0.000000
     2  C    1.420375   0.000000
     3  C    1.415582   2.422807   0.000000
     4  N    1.359346   2.422566   2.419803   0.000000
     5  C    2.432509   1.375650   2.779119   3.675195   0.000000
     6  H    2.177039   1.081596   3.413097   2.681923   2.119795
     7  C    2.425580   2.769836   1.377513   3.671372   2.395083
     8  H    2.171058   3.412586   1.081274   2.677241   3.860080
     9  C    2.430108   2.816721   3.743501   1.449140   4.192125
    10  C    2.438673   3.753624   2.829765   1.451766   4.870240
    11  C    2.850948   2.434247   2.439062   4.210141   1.407817
    12  H    3.403819   2.116755   3.864838   4.536822   1.085890
    13  H    3.403575   3.855761   2.127210   4.543811   3.381285
    14  H    2.772362   2.830084   4.104998   2.112515   4.139573
    15  H    3.323463   3.889367   4.500815   2.081137   5.263447
    16  H    2.751323   2.778719   4.099389   2.111667   4.074950
    17  H    2.746179   4.087346   2.788771   2.111326   5.049536
    18  H    3.327540   4.502339   3.901445   2.081284   5.730136
    19  H    2.802856   4.148999   2.860684   2.119009   5.140034
    20  C    4.291336   3.771446   3.739071   5.650553   2.513606
    21  C    5.254993   4.429086   4.940958   6.594755   3.055472
    22  H    4.843566   4.587204   3.996019   6.177900   3.452137
    23  C    6.634615   5.872838   6.174690   7.986658   4.502537
    24  H    5.206449   4.142841   5.186578   6.481124   2.807852
    25  C    7.777934   6.842504   7.478708   9.102603   5.476140
    26  O    7.048000   6.504220   6.350717   8.405077   5.183250
    27  C    9.082256   8.206565   8.677420  10.422053   6.834416
    28  C    7.829449   6.711308   7.779261   9.085404   5.416594
    29  H    8.630736   8.014339   7.958992   9.989206   6.665400
    30  C   10.212213   9.232939   9.913940  11.528924   7.879868
    31  O    9.430032   8.719996   8.835631  10.787581   7.353268
    32  C    9.104616   7.923633   9.125402  10.325156   6.677604
    33  H    7.001548   5.811612   7.093751   8.210426   4.577545
    34  C   10.219520   9.107283  10.108529  11.483148   7.810525
    35  H   11.180048  10.244499  10.811292  12.509506   8.882461
    36  H    9.336189   8.071315   9.511555  10.484869   6.921639
    37  H   11.208359  10.055618  11.147279  12.450064   8.786709
                    6          7          8          9         10
     6  H    0.000000
     7  C    3.851139   0.000000
     8  H    4.324741   2.126445   0.000000
     9  C    2.474688   4.855078   4.120121   0.000000
    10  C    4.128562   4.206633   2.487667   2.510814   0.000000
    11  C    3.401041   1.405238   3.406933   5.086284   5.100536
    12  H    2.408064   3.389117   4.945873   4.795292   5.826024
    13  H    4.937004   1.085984   2.431326   5.821180   4.826233
    14  H    2.300728   5.083797   4.588580   1.097301   3.239804
    15  H    3.548463   5.724325   4.663568   1.088450   2.544184
    16  H    2.243856   5.058537   4.611532   1.095457   3.241456
    17  H    4.594137   4.083678   2.277296   3.250332   1.095705
    18  H    4.661159   5.276074   3.565714   2.541276   1.089997
    19  H    4.633049   4.178893   2.307915   3.230337   1.095378
    20  C    4.631546   2.457977   4.584189   6.502778   6.495526
    21  C    5.075490   3.746747   5.858307   7.244655   7.591439
    22  H    5.533163   2.619591   4.642710   7.187593   6.824923
    23  C    6.523696   4.880729   7.003256   8.685737   8.912430
    24  H    4.582511   4.180109   6.195149   6.922327   7.626679
    25  C    7.329784   6.240805   8.365851   9.646214  10.134917
    26  O    7.281628   4.986354   7.035014   9.265110   9.168206
    27  C    8.725172   7.383232   9.503341  11.018409  11.398493
    28  C    7.002845   6.678144   8.756010   9.426176  10.250051
    29  H    8.726422   6.594977   8.634889  10.802891  10.774853
    30  C    9.642597   8.655919  10.781974  12.016118  12.577196
    31  O    9.360987   7.484247   9.551962  11.528948  11.634139
    32  C    8.108870   8.050071  10.115996  10.565409  11.534281
    33  H    6.023202   6.105569   8.113099   8.465012   9.430352
    34  C    9.370094   8.942818  11.051896  11.810539  12.635759
    35  H   10.686250   9.520102  11.640129  13.040211  13.518210
    36  H    8.116066   8.538594  10.539685  10.580621  11.761353
    37  H   10.255815  10.001864  12.103842  12.713819  13.633216
                   11         12         13         14         15
    11  C    0.000000
    12  H    2.164349   0.000000
    13  H    2.148394   4.292332   0.000000
    14  H    5.149276   4.612644   6.082549   0.000000
    15  H    6.091718   5.882609   6.623225   1.772395   0.000000
    16  H    5.096977   4.533263   6.066403   1.780344   1.762769
    17  H    5.093495   6.043749   4.568476   4.113153   3.321035
    18  H    6.100410   6.614648   5.914965   3.313351   2.102813
    19  H    5.199255   6.136221   4.660423   3.689715   3.287475
    20  C    1.441381   2.763169   2.650506   6.509317   7.522346
    21  C    2.510772   2.786958   4.005612   7.145462   8.309637
    22  H    2.154144   3.832067   2.343636   7.253427   8.155540
    23  C    3.815161   4.204922   4.881829   8.575612   9.745918
    24  H    2.797448   2.176962   4.668060   6.751234   8.006845
    25  C    5.056280   4.924278   6.329330   9.470807  10.726767
    26  O    4.210361   5.102247   4.713155   9.205090  10.290291
    27  C    6.298433   6.324303   7.326397  10.836965  12.095693
    28  C    5.353664   4.637721   6.973601   9.203790  10.510952
    29  H    5.786400   6.443787   6.289003  10.699594  11.842678
    30  C    7.497409   7.240238   8.664850  11.792417  13.101655
    31  O    6.587788   7.014184   7.235445  11.385696  12.585477
    32  C    6.711682   5.817194   8.355130  10.302122  11.644576
    33  H    4.727753   3.712565   6.546888   8.244367   9.545278
    34  C    7.670309   7.024165   9.111525  11.550297  12.895278
    35  H    8.421205   8.280932   9.445578  12.819420  14.124063
    36  H    7.159799   5.967126   8.953772  10.290667  11.642400
    37  H    8.712254   7.953281  10.189650  12.431640  13.794371
                   16         17         18         19         20
    16  H    0.000000
    17  H    3.718280   0.000000
    18  H    3.291538   1.766977   0.000000
    19  H    4.105141   1.779246   1.769341   0.000000
    20  C    6.460050   6.423401   7.515937   6.529503   0.000000
    21  C    7.081991   7.575847   8.563647   7.686329   1.355542
    22  H    7.224826   6.656757   7.889493   6.750900   1.090256
    23  C    8.532450   8.845695   9.914865   8.942071   2.436713
    24  H    6.664563   7.696424   8.524293   7.815150   2.123186
    25  C    9.396299  10.104121  11.096259  10.223862   3.784988
    26  O    9.205050   9.032785  10.217113   9.093471   2.776108
    27  C   10.794029  11.337167  12.386212  11.431366   4.940423
    28  C    9.064831  10.280975  11.135590  10.446829   4.330291
    29  H   10.708306  10.638704  11.821223  10.690207   4.347989
    30  C   11.726192  12.541672  13.534180  12.653844   6.198490
    31  O   11.391525  11.521291  12.666200  11.573946   5.158255
    32  C   10.148519  11.583394  12.387949  11.758741   5.712544
    33  H    8.061774   9.495273  10.272114   9.689803   3.935918
    34  C   11.434836  12.649954  13.532406  12.798939   6.516176
    35  H   12.770633  13.460338  14.494534  13.558877   7.075509
    36  H   10.091904  11.849673  12.552026  12.054668   6.321669
    37  H   12.302086  13.658995  14.508731  13.818543   7.586212
                   21         22         23         24         25
    21  C    0.000000
    22  H    2.083129   0.000000
    23  C    1.453529   2.588242   0.000000
    24  H    1.082588   3.060012   2.193302   0.000000
    25  C    2.546984   4.063939   1.484505   2.748217   0.000000
    26  O    2.351696   2.398906   1.253054   3.305611   2.365562
    27  C    3.829420   4.988748   2.504267   4.151312   1.416519
    28  C    2.979962   4.893536   2.538534   2.634583   1.406537
    29  H    3.674464   3.999589   2.254054   4.426516   2.364535
    30  C    4.989191   6.340449   3.793658   5.095681   2.443319
    31  O    4.310295   4.919553   2.859382   4.900613   2.413135
    32  C    4.361686   6.253391   3.807698   3.951725   2.435086
    33  H    2.641695   4.697021   2.770573   1.954022   2.162332
    34  C    5.198508   6.870670   4.294733   5.014043   2.810575
    35  H    5.931252   7.103028   4.640555   6.122784   3.412378
    36  H    4.987279   6.982244   4.675073   4.376598   3.410869
    37  H    6.259669   7.955115   5.380476   6.013311   3.896359
                   26         27         28         29         30
    26  O    0.000000
    27  C    2.796915   0.000000
    28  C    3.653537   2.417996   0.000000
    29  H    1.609007   1.866432   3.757046   0.000000
    30  C    4.196410   1.400406   2.780638   3.147006   0.000000
    31  O    2.523718   1.342414   3.664680   0.994254   2.347599
    32  C    4.799879   2.794858   1.382254   4.524730   2.413521
    33  H    4.009154   3.407051   1.082395   4.484209   3.862728
    34  C    5.012137   2.412720   2.402573   4.277989   1.383104
    35  H    4.822147   2.137096   3.864316   3.503500   1.084177
    36  H    5.753436   3.877502   2.137976   5.589333   3.396017
    37  H    6.074573   3.396228   3.385243   5.239774   2.141319
                   31         32         33         34         35
    31  O    0.000000
    32  C    4.136354   0.000000
    33  H    4.563407   2.121203   0.000000
    34  C    3.616801   1.397861   3.374361   0.000000
    35  H    2.546070   3.406751   4.946440   2.159710   0.000000
    36  H    5.218963   1.082732   2.433232   2.160349   4.307297
    37  H    4.487007   2.154114   4.265348   1.085909   2.492653
                   36         37
    36  H    0.000000
    37  H    2.488044   0.000000
 Symmetry turned off by external request.
 Stoichiometry    C17H17NO2
 Framework group  C1[X(C17H17NO2)]
 Deg. of freedom   105
 Full point group                 C1      NOp   1
 Rotational constants (GHZ):      1.1052641      0.1072832      0.0980728
 Leave Link  202 at Wed Jul  5 11:20:30 2017, MaxMem=  1879048192 cpu:         0.0
 (Enter /share/apps/gaussian/g09_D01/g09/l301.exe)
 Standard basis: 6-31G(d) (6D, 7F)
 Ernie: Thresh=  0.10000D-02 Tol=  0.10000D-05 Strict=F.
   334 basis functions,   628 primitive gaussians,   334 cartesian basis functions
    71 alpha electrons       71 beta electrons
       nuclear repulsion energy      1361.2952965831 Hartrees.
 IExCor= 4639 DFT=T Ex+Corr=wB97XD ExCW=0 ScaHFX=  1.000000
 ScaDFX=  1.000000  1.000000  1.000000  1.000000 ScalE2=  1.000000  1.000000
 IRadAn=      0 IRanWt=     -1 IRanGd=            0 ICorTp=0 IEmpDi=121
  HFx wShort=  0.000000 wLong=  0.200000 cFull=  0.222036 cShort=  0.000000 cLong=  0.777964
  DFx wShort=  0.000000 wLong=  0.200000 cFull=  0.000000 cShort=  0.000000 cLong=  1.000000
 NAtoms=   37 NActive=   37 NUniq=   37 SFac= 1.00D+00 NAtFMM=   60 NAOKFM=F Big=F
 Integral buffers will be    131072 words long.
 Raffenetti 1 integral format.
 Two-electron integral symmetry is turned off.
 R6Disp:  Grimme-D2 Dispersion energy=       -0.0228834220 Hartrees.
 Nuclear repulsion after empirical dispersion term =     1361.2724131611 Hartrees.
 Leave Link  301 at Wed Jul  5 11:20:30 2017, MaxMem=  1879048192 cpu:         0.2
 (Enter /share/apps/gaussian/g09_D01/g09/l302.exe)
 NPDir=0 NMtPBC=     1 NCelOv=     1 NCel=       1 NClECP=     1 NCelD=      1
         NCelK=      1 NCelE2=     1 NClLst=     1 CellRange=     0.0.
 One-electron integrals computed using PRISM.
 NBasis=   334 RedAO= T EigKep=  3.72D-04  NBF=   334
 NBsUse=   334 1.00D-06 EigRej= -1.00D+00 NBFU=   334
 Precomputing XC quadrature grid using
 IXCGrd= 4 IRadAn=           0 IRanWt=          -1 IRanGd=           0 AccXCQ= 0.00D+00.
 Generated NRdTot=       0 NPtTot=           0 NUsed=           0 NTot=          32
 NSgBfM=   326   326   326   326   326 MxSgAt=    37 MxSgA2=    37.
 Leave Link  302 at Wed Jul  5 11:20:30 2017, MaxMem=  1879048192 cpu:         1.1
 (Enter /share/apps/gaussian/g09_D01/g09/l308.exe)
 Leave Link  308 at Wed Jul  5 11:20:31 2017, MaxMem=  1879048192 cpu:         0.1
 (Enter /share/apps/gaussian/g09_D01/g09/l303.exe)
 DipDrv:  MaxL=1.
 Leave Link  303 at Wed Jul  5 11:20:31 2017, MaxMem=  1879048192 cpu:         0.1
 (Enter /share/apps/gaussian/g09_D01/g09/l401.exe)
 ExpMin= 1.61D-01 ExpMax= 5.48D+03 ExpMxC= 8.25D+02 IAcc=1 IRadAn=         1 AccDes= 0.00D+00
 Harris functional with IExCor= 4639 and IRadAn=       1 diagonalized for initial guess.
 HarFok:  IExCor= 4639 AccDes= 0.00D+00 IRadAn=         1 IDoV= 1 UseB2=F ITyADJ=14
 ICtDFT=  3500011 ScaDFX=  1.000000  1.000000  1.000000  1.000000
 FoFCou: FMM=F IPFlag=           0 FMFlag=      100000 FMFlg1=           0
         NFxFlg=           0 DoJE=T BraDBF=F KetDBF=T FulRan=T
         wScrn=  0.000000 ICntrl=     500 IOpCl=  0 I1Cent=   200000004 NGrid=           0
         NMat0=    1 NMatS0=      1 NMatT0=    0 NMatD0=    1 NMtDS0=    0 NMtDT0=    0
 Symmetry not used in FoFCou.
 Harris En= -825.237654051676    
 JPrj=0 DoOrth=F DoCkMO=F.
 Leave Link  401 at Wed Jul  5 11:20:32 2017, MaxMem=  1879048192 cpu:         3.2
 (Enter /share/apps/gaussian/g09_D01/g09/l502.exe)
 Closed shell SCF:
 Using DIIS extrapolation, IDIIS=  1040.
 Two-electron integral symmetry not used.
 IVT=      357300 IEndB=      357300 NGot=  1879048192 MDV=  1878819423
 LenX=  1878819423 LenY=  1878707426
 Requested convergence on RMS density matrix=1.00D-08 within 128 cycles.
 Requested convergence on MAX density matrix=1.00D-06.
 Requested convergence on             energy=1.00D-06.
 No special actions if energy rises.
 Fock matrices will be formed incrementally for  20 cycles.
 Integral accuracy reduced to 1.0D-05 until final iterations.

 Cycle   1  Pass 0  IDiag  1:
 FoFJK:  IHMeth= 1 ICntrl=       0 DoSepK=T KAlg= 0 I1Cent=   0 FoldK=F
 IRaf=         1 NMat=   1 IRICut=       1 DoRegI=T DoRafI=F ISym2E= 0.
 FoFCou: FMM=F IPFlag=           0 FMFlag=      100000 FMFlg1=           0
         NFxFlg=           0 DoJE=T BraDBF=F KetDBF=F FulRan=T
         wScrn=  0.000000 ICntrl=     500 IOpCl=  0 I1Cent=           0 NGrid=           0
         NMat0=    1 NMatS0=      1 NMatT0=    0 NMatD0=    1 NMtDS0=    0 NMtDT0=    0
 Symmetry not used in FoFCou.
 E= -862.703824542763    
 DIIS: error= 6.30D-02 at cycle   1 NSaved=   1.
 NSaved= 1 IEnMin= 1 EnMin= -862.703824542763     IErMin= 1 ErrMin= 6.30D-02
 ErrMax= 6.30D-02  0.00D+00 EMaxC= 1.00D-01 BMatC= 8.35D-01 BMatP= 8.35D-01
 IDIUse=3 WtCom= 3.70D-01 WtEn= 6.30D-01
 Coeff-Com:  0.100D+01
 Coeff-En:   0.100D+01
 Coeff:      0.100D+01
 Gap=     0.295 Goal=   None    Shift=    0.000
 GapD=    0.295 DampG=1.000 DampE=0.500 DampFc=0.5000 IDamp=-1.
 Damping current iteration by 5.00D-01
 RMSDP=3.00D-03 MaxDP=1.14D-01              OVMax= 1.84D-01

 Cycle   2  Pass 0  IDiag  1:
 RMSU=  1.50D-03    CP:  9.98D-01
 E= -862.816469867248     Delta-E=       -0.112645324485 Rises=F Damp=T
 DIIS: error= 3.29D-02 at cycle   2 NSaved=   2.
 NSaved= 2 IEnMin= 2 EnMin= -862.816469867248     IErMin= 2 ErrMin= 3.29D-02
 ErrMax= 3.29D-02  0.00D+00 EMaxC= 1.00D-01 BMatC= 1.77D-01 BMatP= 8.35D-01
 IDIUse=3 WtCom= 6.71D-01 WtEn= 3.29D-01
 Coeff-Com: -0.441D+00 0.144D+01
 Coeff-En:   0.000D+00 0.100D+01
 Coeff:     -0.296D+00 0.130D+01
 Gap=     0.279 Goal=   None    Shift=    0.000
 RMSDP=1.32D-03 MaxDP=4.37D-02 DE=-1.13D-01 OVMax= 1.75D-01

 Cycle   3  Pass 0  IDiag  1:
 RMSU=  1.31D-03    CP:  1.00D+00  1.07D+00
 E= -862.905184094185     Delta-E=       -0.088714226938 Rises=F Damp=F
 DIIS: error= 1.19D-02 at cycle   3 NSaved=   3.
 NSaved= 3 IEnMin= 3 EnMin= -862.905184094185     IErMin= 3 ErrMin= 1.19D-02
 ErrMax= 1.19D-02  0.00D+00 EMaxC= 1.00D-01 BMatC= 5.15D-02 BMatP= 1.77D-01
 IDIUse=3 WtCom= 8.81D-01 WtEn= 1.19D-01
 Coeff-Com: -0.315D+00 0.653D+00 0.662D+00
 Coeff-En:   0.000D+00 0.000D+00 0.100D+01
 Coeff:     -0.278D+00 0.575D+00 0.702D+00
 Gap=     0.265 Goal=   None    Shift=    0.000
 RMSDP=8.23D-04 MaxDP=3.84D-02 DE=-8.87D-02 OVMax= 7.40D-02

 Cycle   4  Pass 0  IDiag  1:
 RMSU=  2.99D-04    CP:  9.98D-01  1.47D+00  6.42D-01
 E= -862.948383638042     Delta-E=       -0.043199543857 Rises=F Damp=F
 DIIS: error= 3.12D-03 at cycle   4 NSaved=   4.
 NSaved= 4 IEnMin= 4 EnMin= -862.948383638042     IErMin= 4 ErrMin= 3.12D-03
 ErrMax= 3.12D-03  0.00D+00 EMaxC= 1.00D-01 BMatC= 3.97D-03 BMatP= 5.15D-02
 IDIUse=3 WtCom= 9.69D-01 WtEn= 3.12D-02
 Coeff-Com: -0.136D+00 0.277D+00 0.382D+00 0.476D+00
 Coeff-En:   0.000D+00 0.000D+00 0.000D+00 0.100D+01
 Coeff:     -0.132D+00 0.269D+00 0.371D+00 0.493D+00
 Gap=     0.250 Goal=   None    Shift=    0.000
 RMSDP=1.85D-04 MaxDP=9.76D-03 DE=-4.32D-02 OVMax= 1.29D-02

 Cycle   5  Pass 0  IDiag  1:
 RMSU=  1.04D-04    CP:  9.98D-01  1.42D+00  7.26D-01  7.79D-01
 E= -862.951723526891     Delta-E=       -0.003339888849 Rises=F Damp=F
 DIIS: error= 3.91D-04 at cycle   5 NSaved=   5.
 NSaved= 5 IEnMin= 5 EnMin= -862.951723526891     IErMin= 5 ErrMin= 3.91D-04
 ErrMax= 3.91D-04  0.00D+00 EMaxC= 1.00D-01 BMatC= 8.67D-05 BMatP= 3.97D-03
 IDIUse=3 WtCom= 9.96D-01 WtEn= 3.91D-03
 Coeff-Com:  0.796D-04-0.142D-02 0.331D-01 0.135D+00 0.833D+00
 Coeff-En:   0.000D+00 0.000D+00 0.000D+00 0.000D+00 0.100D+01
 Coeff:      0.793D-04-0.141D-02 0.330D-01 0.135D+00 0.834D+00
 Gap=     0.250 Goal=   None    Shift=    0.000
 RMSDP=5.59D-05 MaxDP=2.08D-03 DE=-3.34D-03 OVMax= 6.68D-03

 Cycle   6  Pass 0  IDiag  1:
 RMSU=  3.98D-05    CP:  9.98D-01  1.42D+00  7.35D-01  8.95D-01  1.09D+00
 E= -862.951864949299     Delta-E=       -0.000141422408 Rises=F Damp=F
 DIIS: error= 2.39D-04 at cycle   6 NSaved=   6.
 NSaved= 6 IEnMin= 6 EnMin= -862.951864949299     IErMin= 6 ErrMin= 2.39D-04
 ErrMax= 2.39D-04  0.00D+00 EMaxC= 1.00D-01 BMatC= 2.71D-05 BMatP= 8.67D-05
 IDIUse=3 WtCom= 9.98D-01 WtEn= 2.39D-03
 Coeff-Com:  0.314D-01-0.645D-01-0.695D-01-0.521D-01 0.407D+00 0.748D+00
 Coeff-En:   0.000D+00 0.000D+00 0.000D+00 0.000D+00 0.000D+00 0.100D+01
 Coeff:      0.313D-01-0.644D-01-0.693D-01-0.520D-01 0.406D+00 0.748D+00
 Gap=     0.251 Goal=   None    Shift=    0.000
 RMSDP=3.01D-05 MaxDP=1.12D-03 DE=-1.41D-04 OVMax= 5.07D-03

 Cycle   7  Pass 0  IDiag  1:
 RMSU=  1.97D-05    CP:  9.98D-01  1.43D+00  7.42D-01  9.34D-01  1.25D+00
                    CP:  1.06D+00
 E= -862.951913956153     Delta-E=       -0.000049006853 Rises=F Damp=F
 DIIS: error= 1.08D-04 at cycle   7 NSaved=   7.
 NSaved= 7 IEnMin= 7 EnMin= -862.951913956153     IErMin= 7 ErrMin= 1.08D-04
 ErrMax= 1.08D-04  0.00D+00 EMaxC= 1.00D-01 BMatC= 2.50D-06 BMatP= 2.71D-05
 IDIUse=3 WtCom= 9.99D-01 WtEn= 1.08D-03
 Coeff-Com:  0.793D-02-0.162D-01-0.199D-01-0.246D-01 0.241D-01 0.240D+00
 Coeff-Com:  0.788D+00
 Coeff-En:   0.000D+00 0.000D+00 0.000D+00 0.000D+00 0.000D+00 0.000D+00
 Coeff-En:   0.100D+01
 Coeff:      0.792D-02-0.162D-01-0.199D-01-0.246D-01 0.241D-01 0.240D+00
 Coeff:      0.789D+00
 Gap=     0.251 Goal=   None    Shift=    0.000
 RMSDP=1.06D-05 MaxDP=2.58D-04 DE=-4.90D-05 OVMax= 1.57D-03

 Cycle   8  Pass 0  IDiag  1:
 RMSU=  6.36D-06    CP:  9.98D-01  1.43D+00  7.43D-01  9.45D-01  1.30D+00
                    CP:  1.21D+00  1.05D+00
 E= -862.951919313097     Delta-E=       -0.000005356944 Rises=F Damp=F
 DIIS: error= 3.55D-05 at cycle   8 NSaved=   8.
 NSaved= 8 IEnMin= 8 EnMin= -862.951919313097     IErMin= 8 ErrMin= 3.55D-05
 ErrMax= 3.55D-05  0.00D+00 EMaxC= 1.00D-01 BMatC= 6.19D-07 BMatP= 2.50D-06
 IDIUse=1 WtCom= 1.00D+00 WtEn= 0.00D+00
 Coeff-Com: -0.314D-02 0.659D-02 0.605D-02-0.675D-04-0.887D-01-0.508D-01
 Coeff-Com:  0.349D+00 0.781D+00
 Coeff:     -0.314D-02 0.659D-02 0.605D-02-0.675D-04-0.887D-01-0.508D-01
 Coeff:      0.349D+00 0.781D+00
 Gap=     0.251 Goal=   None    Shift=    0.000
 RMSDP=5.96D-06 MaxDP=1.27D-04 DE=-5.36D-06 OVMax= 1.10D-03

 Initial convergence to 1.0D-05 achieved.  Increase integral accuracy.
 Cycle   9  Pass 1  IDiag  1:
 E= -862.951066448758     Delta-E=        0.000852864338 Rises=F Damp=F
 DIIS: error= 1.13D-04 at cycle   1 NSaved=   1.
 NSaved= 1 IEnMin= 1 EnMin= -862.951066448758     IErMin= 1 ErrMin= 1.13D-04
 ErrMax= 1.13D-04  0.00D+00 EMaxC= 1.00D-01 BMatC= 7.66D-06 BMatP= 7.66D-06
 IDIUse=3 WtCom= 9.99D-01 WtEn= 1.13D-03
 Coeff-Com:  0.100D+01
 Coeff-En:   0.100D+01
 Coeff:      0.100D+01
 Gap=     0.251 Goal=   None    Shift=    0.000
 RMSDP=5.96D-06 MaxDP=1.27D-04 DE= 8.53D-04 OVMax= 2.77D-04

 Cycle  10  Pass 1  IDiag  1:
 RMSU=  3.99D-05    CP:  1.00D+00
 E= -862.951072331833     Delta-E=       -0.000005883075 Rises=F Damp=F
 DIIS: error= 1.58D-05 at cycle   2 NSaved=   2.
 NSaved= 2 IEnMin= 2 EnMin= -862.951072331833     IErMin= 2 ErrMin= 1.58D-05
 ErrMax= 1.58D-05  0.00D+00 EMaxC= 1.00D-01 BMatC= 1.85D-07 BMatP= 7.66D-06
 IDIUse=1 WtCom= 1.00D+00 WtEn= 0.00D+00
 Coeff-Com: -0.360D-01 0.104D+01
 Coeff:     -0.360D-01 0.104D+01
 Gap=     0.251 Goal=   None    Shift=    0.000
 RMSDP=3.21D-06 MaxDP=9.57D-05 DE=-5.88D-06 OVMax= 2.69D-04

 Cycle  11  Pass 1  IDiag  1:
 RMSU=  2.50D-06    CP:  1.00D+00  1.05D+00
 E= -862.951072421744     Delta-E=       -0.000000089911 Rises=F Damp=F
 DIIS: error= 1.96D-05 at cycle   3 NSaved=   3.
 NSaved= 3 IEnMin= 3 EnMin= -862.951072421744     IErMin= 2 ErrMin= 1.58D-05
 ErrMax= 1.96D-05  0.00D+00 EMaxC= 1.00D-01 BMatC= 1.84D-07 BMatP= 1.85D-07
 IDIUse=1 WtCom= 1.00D+00 WtEn= 0.00D+00
 Coeff-Com: -0.390D-01 0.536D+00 0.503D+00
 Coeff:     -0.390D-01 0.536D+00 0.503D+00
 Gap=     0.251 Goal=   None    Shift=    0.000
 RMSDP=1.33D-06 MaxDP=5.03D-05 DE=-8.99D-08 OVMax= 8.31D-05

 Cycle  12  Pass 1  IDiag  1:
 RMSU=  1.05D-06    CP:  1.00D+00  1.05D+00  6.79D-01
 E= -862.951072579981     Delta-E=       -0.000000158237 Rises=F Damp=F
 DIIS: error= 3.27D-06 at cycle   4 NSaved=   4.
 NSaved= 4 IEnMin= 4 EnMin= -862.951072579981     IErMin= 4 ErrMin= 3.27D-06
 ErrMax= 3.27D-06  0.00D+00 EMaxC= 1.00D-01 BMatC= 5.37D-09 BMatP= 1.84D-07
 IDIUse=1 WtCom= 1.00D+00 WtEn= 0.00D+00
 Coeff-Com: -0.499D-02 0.683D-02 0.115D+00 0.883D+00
 Coeff:     -0.499D-02 0.683D-02 0.115D+00 0.883D+00
 Gap=     0.251 Goal=   None    Shift=    0.000
 RMSDP=4.42D-07 MaxDP=1.52D-05 DE=-1.58D-07 OVMax= 6.70D-05

 Cycle  13  Pass 1  IDiag  1:
 RMSU=  3.08D-07    CP:  1.00D+00  1.05D+00  7.99D-01  1.09D+00
 E= -862.951072589518     Delta-E=       -0.000000009537 Rises=F Damp=F
 DIIS: error= 1.91D-06 at cycle   5 NSaved=   5.
 NSaved= 5 IEnMin= 5 EnMin= -862.951072589518     IErMin= 5 ErrMin= 1.91D-06
 ErrMax= 1.91D-06  0.00D+00 EMaxC= 1.00D-01 BMatC= 1.78D-09 BMatP= 5.37D-09
 IDIUse=1 WtCom= 1.00D+00 WtEn= 0.00D+00
 Coeff-Com:  0.221D-02-0.583D-01-0.105D-01 0.415D+00 0.651D+00
 Coeff:      0.221D-02-0.583D-01-0.105D-01 0.415D+00 0.651D+00
 Gap=     0.251 Goal=   None    Shift=    0.000
 RMSDP=2.04D-07 MaxDP=6.99D-06 DE=-9.54D-09 OVMax= 2.73D-05

 Cycle  14  Pass 1  IDiag  1:
 RMSU=  1.46D-07    CP:  1.00D+00  1.05D+00  8.23D-01  1.22D+00  9.93D-01
 E= -862.951072592229     Delta-E=       -0.000000002710 Rises=F Damp=F
 DIIS: error= 8.39D-07 at cycle   6 NSaved=   6.
 NSaved= 6 IEnMin= 6 EnMin= -862.951072592229     IErMin= 6 ErrMin= 8.39D-07
 ErrMax= 8.39D-07  0.00D+00 EMaxC= 1.00D-01 BMatC= 2.56D-10 BMatP= 1.78D-09
 IDIUse=1 WtCom= 1.00D+00 WtEn= 0.00D+00
 Coeff-Com:  0.192D-02-0.237D-01-0.334D-01-0.282D-01 0.227D+00 0.856D+00
 Coeff:      0.192D-02-0.237D-01-0.334D-01-0.282D-01 0.227D+00 0.856D+00
 Gap=     0.251 Goal=   None    Shift=    0.000
 RMSDP=1.29D-07 MaxDP=3.52D-06 DE=-2.71D-09 OVMax= 2.10D-05

 Cycle  15  Pass 1  IDiag  1:
 RMSU=  6.09D-08    CP:  1.00D+00  1.05D+00  8.40D-01  1.29D+00  1.23D+00
                    CP:  1.17D+00
 E= -862.951072592940     Delta-E=       -0.000000000711 Rises=F Damp=F
 DIIS: error= 3.04D-07 at cycle   7 NSaved=   7.
 NSaved= 7 IEnMin= 7 EnMin= -862.951072592940     IErMin= 7 ErrMin= 3.04D-07
 ErrMax= 3.04D-07  0.00D+00 EMaxC= 1.00D-01 BMatC= 5.77D-11 BMatP= 2.56D-10
 IDIUse=1 WtCom= 1.00D+00 WtEn= 0.00D+00
 Coeff-Com:  0.394D-03 0.181D-02-0.128D-01-0.901D-01-0.409D-01 0.353D+00
 Coeff-Com:  0.789D+00
 Coeff:      0.394D-03 0.181D-02-0.128D-01-0.901D-01-0.409D-01 0.353D+00
 Coeff:      0.789D+00
 Gap=     0.251 Goal=   None    Shift=    0.000
 RMSDP=6.38D-08 MaxDP=1.28D-06 DE=-7.11D-10 OVMax= 1.20D-05

 Cycle  16  Pass 1  IDiag  1:
 RMSU=  2.82D-08    CP:  1.00D+00  1.05D+00  8.48D-01  1.31D+00  1.33D+00
                    CP:  1.41D+00  1.06D+00
 E= -862.951072593116     Delta-E=       -0.000000000176 Rises=F Damp=F
 DIIS: error= 2.42D-07 at cycle   8 NSaved=   8.
 NSaved= 8 IEnMin= 8 EnMin= -862.951072593116     IErMin= 8 ErrMin= 2.42D-07
 ErrMax= 2.42D-07  0.00D+00 EMaxC= 1.00D-01 BMatC= 9.54D-12 BMatP= 5.77D-11
 IDIUse=1 WtCom= 1.00D+00 WtEn= 0.00D+00
 Coeff-Com: -0.269D-03 0.536D-02 0.245D-02-0.202D-01-0.652D-01-0.790D-01
 Coeff-Com:  0.269D+00 0.888D+00
 Coeff:     -0.269D-03 0.536D-02 0.245D-02-0.202D-01-0.652D-01-0.790D-01
 Coeff:      0.269D+00 0.888D+00
 Gap=     0.251 Goal=   None    Shift=    0.000
 RMSDP=2.92D-08 MaxDP=4.87D-07 DE=-1.76D-10 OVMax= 5.00D-06

 Cycle  17  Pass 1  IDiag  1:
 RMSU=  1.01D-08    CP:  1.00D+00  1.05D+00  8.50D-01  1.32D+00  1.37D+00
                    CP:  1.51D+00  1.29D+00  1.09D+00
 E= -862.951072593165     Delta-E=       -0.000000000049 Rises=F Damp=F
 DIIS: error= 3.74D-08 at cycle   9 NSaved=   9.
 NSaved= 9 IEnMin= 9 EnMin= -862.951072593165     IErMin= 9 ErrMin= 3.74D-08
 ErrMax= 3.74D-08  0.00D+00 EMaxC= 1.00D-01 BMatC= 9.91D-13 BMatP= 9.54D-12
 IDIUse=1 WtCom= 1.00D+00 WtEn= 0.00D+00
 Coeff-Com: -0.147D-03 0.185D-02 0.216D-02 0.209D-02-0.204D-01-0.673D-01
 Coeff-Com:  0.118D-01 0.307D+00 0.763D+00
 Coeff:     -0.147D-03 0.185D-02 0.216D-02 0.209D-02-0.204D-01-0.673D-01
 Coeff:      0.118D-01 0.307D+00 0.763D+00
 Gap=     0.251 Goal=   None    Shift=    0.000
 RMSDP=7.85D-09 MaxDP=1.37D-07 DE=-4.87D-11 OVMax= 1.21D-06

 SCF Done:  E(RwB97XD) =  -862.951072593     A.U. after   17 cycles
            NFock= 17  Conv=0.78D-08     -V/T= 2.0093
 KE= 8.550404988516D+02 PE=-4.727705887842D+03 EE= 1.648441903236D+03
 Leave Link  502 at Wed Jul  5 11:22:54 2017, MaxMem=  1879048192 cpu:       283.3
 (Enter /share/apps/gaussian/g09_D01/g09/l801.exe)
 DoSCS=F DFT=T ScalE2(SS,OS)=  1.000000  1.000000
 ExpMin= 1.61D-01 ExpMax= 5.48D+03 ExpMxC= 8.25D+02 IAcc=3 IRadAn=         5 AccDes= 0.00D+00
 HarFok:  IExCor=  205 AccDes= 0.00D+00 IRadAn=         5 IDoV=-2 UseB2=F ITyADJ=14
 ICtDFT= 12500011 ScaDFX=  1.000000  1.000000  1.000000  1.000000
 Largest valence mixing into a core orbital is  7.27D-05
 Largest core mixing into a valence orbital is  1.52D-05
 Range of M.O.s used for correlation:    21   334
 NBasis=   334 NAE=    71 NBE=    71 NFC=    20 NFV=     0
 NROrb=    314 NOA=    51 NOB=    51 NVA=   263 NVB=   263
 Leave Link  801 at Wed Jul  5 11:22:54 2017, MaxMem=  1879048192 cpu:         1.0
 (Enter /share/apps/gaussian/g09_D01/g09/l914.exe)
 RHF ground state
 MDV=  1879048192 DFT=T DoStab=F Mixed=T DoRPA=T DoScal=F NonHer=T
 Would need an additional          7529500000 words for in-memory AO integral storage.
 Making orbital integer symmetry assigments:
     8 initial guesses have been made.
 Convergence on wavefunction:    0.001000000000000
 Davidson Disk Diagonalization:  ConvIn= 1.00D-03 SkipCon=T Conv= 1.00D-03.
 Max sub-space:   200 roots to seek:     8 dimension of matrix:        26826
 Iteration     1 Dimension     8 NMult     0 NNew      8
 CISAX will form     8 AO SS matrices at one time.
 NMat=     8 NSing=     8 JSym2X= 0.
 FoFJK:  IHMeth= 1 ICntrl=       0 DoSepK=T KAlg= 0 I1Cent=   0 FoldK=F
 IRaf=         1 NMat=  16 IRICut=       1 DoRegI=T DoRafI=F ISym2E= 0.
 FoFCou: FMM=F IPFlag=           0 FMFlag=      100000 FMFlg1=           0
         NFxFlg=           0 DoJE=F BraDBF=F KetDBF=F FulRan=T
         wScrn=  0.000000 ICntrl=     500 IOpCl=  0 I1Cent=           0 NGrid=           0
         NMat0=    8 NMatS0=      8 NMatT0=    0 NMatD0=    8 NMtDS0=    0 NMtDT0=    0
 Symmetry not used in FoFCou.
 New state      2 was old state      5
 Excitation Energies [eV] at current iteration:
 Root      1 :     4.139897691456214
 Root      2 :     4.368326101913762
 Root      3 :     4.809475541130795
 Root      4 :     5.299609076007742
 Root      5 :     5.939049266458410
 Root      6 :     6.221202326053887
 Root      7 :     6.433574310705251
 Root      8 :     6.611768905939828
 Iteration     2 Dimension    12 NMult     8 NNew      4
 CISAX will form     4 AO SS matrices at one time.
 NMat=     4 NSing=     4 JSym2X= 0.
 Root      1 not converged, maximum delta is    0.084323746464161
 Root      2 not converged, maximum delta is    0.128052571848924
 Excitation Energies [eV] at current iteration:
 Root      1 :     3.680590933548409   Change is   -0.459306757907805
 Root      2 :     3.929276410900837   Change is   -0.439049691012926
 Iteration     3 Dimension    16 NMult    12 NNew      4
 CISAX will form     4 AO SS matrices at one time.
 NMat=     4 NSing=     4 JSym2X= 0.
 Root      1 not converged, maximum delta is    0.018218096459382
 Root      2 not converged, maximum delta is    0.028205401689609
 Excitation Energies [eV] at current iteration:
 Root      1 :     3.644021083780306   Change is   -0.036569849768103
 Root      2 :     3.904241951907983   Change is   -0.025034458992854
 Iteration     4 Dimension    20 NMult    16 NNew      4
 CISAX will form     4 AO SS matrices at one time.
 NMat=     4 NSing=     4 JSym2X= 0.
 Root      1 not converged, maximum delta is    0.009505296592569
 Root      2 not converged, maximum delta is    0.005601619892735
 Excitation Energies [eV] at current iteration:
 Root      1 :     3.638269562081719   Change is   -0.005751521698587
 Root      2 :     3.902390432897559   Change is   -0.001851519010424
 Iteration     5 Dimension    24 NMult    20 NNew      4
 CISAX will form     4 AO SS matrices at one time.
 NMat=     4 NSing=     4 JSym2X= 0.
 Root      1 not converged, maximum delta is    0.004472557646919
 Root      2 not converged, maximum delta is    0.001821623389040
 Excitation Energies [eV] at current iteration:
 Root      1 :     3.637407255777552   Change is   -0.000862306304167
 Root      2 :     3.902232536263336   Change is   -0.000157896634223
 Iteration     6 Dimension    28 NMult    24 NNew      4
 CISAX will form     4 AO SS matrices at one time.
 NMat=     4 NSing=     4 JSym2X= 0.
 Root      1 not converged, maximum delta is    0.003556317763578
 Root      2 not converged, maximum delta is    0.001957317720377
 Excitation Energies [eV] at current iteration:
 Root      1 :     3.637223322970043   Change is   -0.000183932807509
 Root      2 :     3.902202626801293   Change is   -0.000029909462042
 Iteration     7 Dimension    32 NMult    28 NNew      4
 CISAX will form     4 AO SS matrices at one time.
 NMat=     4 NSing=     4 JSym2X= 0.
 Root      1 not converged, maximum delta is    0.001391733479741
 Root      2 not converged, maximum delta is    0.001294030685842
 Excitation Energies [eV] at current iteration:
 Root      1 :     3.637191958496290   Change is   -0.000031364473752
 Root      2 :     3.902194676830045   Change is   -0.000007949971248
 Iteration     8 Dimension    36 NMult    32 NNew      4
 CISAX will form     4 AO SS matrices at one time.
 NMat=     4 NSing=     4 JSym2X= 0.
 Root      1 has converged.
 Root      2 has converged.
 Excitation Energies [eV] at current iteration:
 Root      1 :     3.637185960807356   Change is   -0.000005997688934
 Root      2 :     3.902192137115170   Change is   -0.000002539714875
 Convergence achieved on expansion vectors.
 ***********************************************************************
 Excited states from <AA,BB:AA,BB> singles matrix:
 ***********************************************************************
 
 1PDM for each excited state written to RWF  633
 Ground to excited state transition densities written to RWF  633
 Ground to excited state transition electric dipole moments (Au):
       state          X           Y           Z        Dip. S.      Osc.
         1         3.4061     -0.2895     -1.3148     13.4137      1.1953
         2        -0.2543      0.0261      0.0842      0.0725      0.0069
 Ground to excited state transition velocity dipole moments (Au):
       state          X           Y           Z        Dip. S.      Osc.
         1        -0.4457      0.0356      0.1757      0.2308      1.1509
         2         0.0347     -0.0015     -0.0113      0.0013      0.0062
 Ground to excited state transition magnetic dipole moments (Au):
       state          X           Y           Z
         1         1.0243     -0.2817      2.7215
         2        -0.1173      0.3292     -0.6774
 Ground to excited state transition velocity quadrupole moments (Au):
       state          XX          YY          ZZ          XY          XZ          YZ
         1        -2.1270      0.3672      0.3074     -1.9486     -0.0712      0.8778
         2         0.2471     -0.0071     -0.0245      0.1442     -0.0181     -0.0534
 <0|del|b> * <b|rxdel|0> + <0|del|b> * <b|delr+rdel|0>
 Rotatory Strengths (R) in cgs (10**-40 erg-esu-cm/Gauss)
       state          XX          YY          ZZ    R(velocity)    E-M Angle
         1       339.3842    -72.4489   -205.9153     20.3400       89.53
         2        13.4955      8.2141     -6.6466      5.0210       83.70
 1/2[<0|r|b>*<b|rxdel|0> + (<0|rxdel|b>*<b|r|0>)*]
 Rotatory Strengths (R) in cgs (10**-40 erg-esu-cm/Gauss)
       state          XX          YY          ZZ     R(length)
         1     -2467.2527    -57.6602   2530.3736      1.8202
         2       -21.0921     -6.0870     40.3422      4.3877
  1/2[<0|del|b>*<b|r|0> + (<0|r|b>*<b|del|0>)*] (Au)
       state          X           Y           Z        Dip. S.   Osc.(frdel)
         1        -1.5180     -0.0103     -0.2310      1.7593      1.1728
         2        -0.0088      0.0000     -0.0009      0.0098      0.0065

 Excitation energies and oscillator strengths:
 
 Excited state symmetry could not be determined.
 Excited State   1:      Singlet-?Sym    3.6372 eV  340.88 nm  f=1.1953  <S**2>=0.000
      66 -> 72         0.10240
      70 -> 72        -0.16814
      70 -> 73         0.11829
      71 -> 72         0.64881
 This state for optimization and/or second-order correction.
 Total Energy, E(TD-HF/TD-KS) =  -862.817408463    
 Copying the excited state density for this state as the 1-particle RhoCI density.
 
 Excited state symmetry could not be determined.
 Excited State   2:      Singlet-?Sym    3.9022 eV  317.73 nm  f=0.0069  <S**2>=0.000
      68 -> 72         0.66068
      68 -> 73        -0.12650
      68 -> 76        -0.12486
 SavETr:  write IOETrn=   770 NScale= 10 NData=  16 NLR=1 NState=    2 LETran=      46.
 Leave Link  914 at Wed Jul  5 11:28:00 2017, MaxMem=  1879048192 cpu:       612.0
 (Enter /share/apps/gaussian/g09_D01/g09/l601.exe)
 Copying SCF densities to generalized density rwf, IOpCl= 0 IROHF=0.
 Saving Alpha spin NTOs for state    1 to file 10524.

 **********************************************************************

   Populations using transition density between ground and state  1.

 **********************************************************************

 Alpha  occ. eigenvalues --    0.00000   0.00000   0.00000   0.00000   0.00000
 Alpha  occ. eigenvalues --    0.00000   0.00000   0.00000   0.00000   0.00000
 Alpha  occ. eigenvalues --    0.00000   0.00000   0.00000   0.00000   0.00000
 Alpha  occ. eigenvalues --    0.00000   0.00000   0.00000   0.00000   0.00000
 Alpha  occ. eigenvalues --    0.00000   0.00000   0.00000   0.00000   0.00000
 Alpha  occ. eigenvalues --    0.00000   0.00001   0.00001   0.00001   0.00001
 Alpha  occ. eigenvalues --    0.00001   0.00001   0.00002   0.00002   0.00002
 Alpha  occ. eigenvalues --    0.00003   0.00003   0.00003   0.00003   0.00003
 Alpha  occ. eigenvalues --    0.00004   0.00005   0.00006   0.00006   0.00006
 Alpha  occ. eigenvalues --    0.00008   0.00010   0.00011   0.00011   0.00013
 Alpha  occ. eigenvalues --    0.00014   0.00015   0.00016   0.00016   0.00017
 Alpha  occ. eigenvalues --    0.00017   0.00018   0.00022   0.00023   0.00032
 Alpha  occ. eigenvalues --    0.00037   0.00046   0.00055   0.00085   0.00088
 Alpha  occ. eigenvalues --    0.00112   0.00137   0.00162   0.00532   0.04904
 Alpha  occ. eigenvalues --    0.94370
 Alpha virt. eigenvalues --    0.94370   0.04904   0.00532   0.00162   0.00137
 Alpha virt. eigenvalues --    0.00112   0.00088   0.00085   0.00055   0.00046
 Alpha virt. eigenvalues --    0.00037   0.00032   0.00023   0.00022   0.00018
 Alpha virt. eigenvalues --    0.00017   0.00017   0.00016   0.00016   0.00015
 Alpha virt. eigenvalues --    0.00014   0.00013   0.00011   0.00011   0.00010
 Alpha virt. eigenvalues --    0.00008   0.00006   0.00006   0.00006   0.00005
 Alpha virt. eigenvalues --    0.00004   0.00003   0.00003   0.00003   0.00003
 Alpha virt. eigenvalues --    0.00003   0.00002   0.00002   0.00002   0.00001
 Alpha virt. eigenvalues --    0.00001   0.00001   0.00001   0.00001   0.00001
 Alpha virt. eigenvalues --    0.00000   0.00000   0.00000   0.00000   0.00000
 Alpha virt. eigenvalues --    0.00000   0.00000   0.00000   0.00000   0.00000
 Alpha virt. eigenvalues --    0.00000   0.00000   0.00000   0.00000   0.00000
 Alpha virt. eigenvalues --    0.00000   0.00000   0.00000   0.00000   0.00000
 Alpha virt. eigenvalues --    0.00000   0.00000   0.00000   0.00000   0.00000
 Alpha virt. eigenvalues --    0.00000   0.00000   0.00000   0.00000   0.00000
 Alpha virt. eigenvalues --    0.00000   0.00000   0.00000   0.00000   0.00000
 Alpha virt. eigenvalues --    0.00000   0.00000   0.00000   0.00000   0.00000
 Alpha virt. eigenvalues --    0.00000   0.00000   0.00000   0.00000   0.00000
 Alpha virt. eigenvalues --    0.00000   0.00000   0.00000   0.00000   0.00000
 Alpha virt. eigenvalues --    0.00000   0.00000   0.00000   0.00000   0.00000
 Alpha virt. eigenvalues --    0.00000   0.00000   0.00000   0.00000   0.00000
 Alpha virt. eigenvalues --    0.00000   0.00000   0.00000   0.00000   0.00000
 Alpha virt. eigenvalues --    0.00000   0.00000   0.00000   0.00000   0.00000
 Alpha virt. eigenvalues --    0.00000   0.00000   0.00000   0.00000   0.00000
 Alpha virt. eigenvalues --    0.00000   0.00000   0.00000   0.00000   0.00000
 Alpha virt. eigenvalues --    0.00000   0.00000   0.00000   0.00000   0.00000
 Alpha virt. eigenvalues --    0.00000   0.00000   0.00000   0.00000   0.00000
 Alpha virt. eigenvalues --    0.00000   0.00000   0.00000   0.00000   0.00000
 Alpha virt. eigenvalues --    0.00000   0.00000   0.00000   0.00000   0.00000
 Alpha virt. eigenvalues --    0.00000   0.00000   0.00000   0.00000   0.00000
 Alpha virt. eigenvalues --    0.00000   0.00000   0.00000   0.00000   0.00000
 Alpha virt. eigenvalues --    0.00000   0.00000   0.00000   0.00000   0.00000
 Alpha virt. eigenvalues --    0.00000   0.00000   0.00000   0.00000   0.00000
 Alpha virt. eigenvalues --    0.00000   0.00000   0.00000   0.00000   0.00000
 Alpha virt. eigenvalues --    0.00000   0.00000   0.00000   0.00000   0.00000
 Alpha virt. eigenvalues --    0.00000   0.00000   0.00000   0.00000   0.00000
 Alpha virt. eigenvalues --    0.00000   0.00000   0.00000   0.00000   0.00000
 Alpha virt. eigenvalues --    0.00000   0.00000   0.00000   0.00000   0.00000
 Alpha virt. eigenvalues --    0.00000   0.00000   0.00000   0.00000   0.00000
 Alpha virt. eigenvalues --    0.00000   0.00000   0.00000   0.00000   0.00000
 Alpha virt. eigenvalues --    0.00000   0.00000   0.00000   0.00000   0.00000
 Alpha virt. eigenvalues --    0.00000   0.00000   0.00000   0.00000   0.00000
 Alpha virt. eigenvalues --    0.00000   0.00000   0.00000   0.00000   0.00000
 Alpha virt. eigenvalues --    0.00000   0.00000   0.00000   0.00000   0.00000
 Alpha virt. eigenvalues --    0.00000   0.00000   0.00000   0.00000   0.00000
 Alpha virt. eigenvalues --    0.00000   0.00000   0.00000   0.00000   0.00000
 Alpha virt. eigenvalues --    0.00000   0.00000   0.00000   0.00000   0.00000
 Alpha virt. eigenvalues --    0.00000   0.00000   0.00000   0.00000   0.00000
 Alpha virt. eigenvalues --    0.00000   0.00000   0.00000   0.00000   0.00000
 Alpha virt. eigenvalues --    0.00000   0.00000   0.00000   0.00000   0.00000
 Alpha virt. eigenvalues --    0.00000   0.00000   0.00000   0.00000   0.00000
 Alpha virt. eigenvalues --    0.00000   0.00000   0.00000   0.00000   0.00000
 Alpha virt. eigenvalues --    0.00000   0.00000   0.00000
          Condensed to atoms (all electrons):
               1          2          3          4          5          6
     1  C    0.014526   0.049392   0.033654  -0.049252  -0.006031   0.004508
     2  C    0.049392  -0.026128  -0.002615  -0.001874  -0.031886  -0.004616
     3  C    0.033654  -0.002615  -0.036403  -0.000153  -0.005574   0.000527
     4  N   -0.049252  -0.001874  -0.000153   0.035085   0.000907  -0.000630
     5  C   -0.006031  -0.031886  -0.005574   0.000907   0.053194  -0.006682
     6  H    0.004508  -0.004616   0.000527  -0.000630  -0.006682   0.024425
     7  C   -0.005873  -0.004715  -0.019021   0.000626   0.013715   0.000117
     8  H    0.004627   0.000363  -0.005010  -0.000308   0.000126  -0.000014
     9  C    0.000175  -0.003894   0.000640   0.041442   0.000001   0.000440
    10  C    0.000068   0.000586  -0.003656   0.038810  -0.000003   0.000021
    11  C   -0.002704   0.005703   0.007054   0.000072   0.050564   0.000331
    12  H    0.000114   0.000255   0.000068  -0.000013  -0.001624  -0.000635
    13  H   -0.000023   0.000074   0.000085  -0.000008  -0.000101   0.000001
    14  H    0.002128   0.001674   0.000014  -0.009861  -0.000073   0.000249
    15  H   -0.000109  -0.000009  -0.000009  -0.000557  -0.000001  -0.000071
    16  H    0.002087   0.001811   0.000003  -0.010058  -0.000112   0.000414
    17  H    0.002108   0.000041   0.001200  -0.009426  -0.000009   0.000000
    18  H   -0.000157  -0.000007  -0.000016  -0.000416   0.000000  -0.000001
    19  H    0.001916   0.000026   0.000846  -0.009750  -0.000006  -0.000001
    20  C    0.000195   0.000922   0.000288  -0.000002  -0.013476  -0.000018
    21  C    0.000008  -0.000165  -0.000047   0.000000  -0.001833  -0.000001
    22  H    0.000002  -0.000001  -0.000004   0.000000  -0.000037   0.000000
    23  C    0.000000  -0.000001   0.000000   0.000000   0.000082   0.000000
    24  H    0.000002  -0.000126   0.000000   0.000000   0.000841  -0.000002
    25  C    0.000000   0.000000   0.000000   0.000000  -0.000002   0.000000
    26  O    0.000000   0.000000   0.000000   0.000000  -0.000004   0.000000
    27  C    0.000000   0.000000   0.000000   0.000000   0.000000   0.000000
    28  C    0.000000   0.000000   0.000000   0.000000   0.000000   0.000000
    29  H    0.000000   0.000000   0.000000   0.000000   0.000000   0.000000
    30  C    0.000000   0.000000   0.000000   0.000000   0.000000   0.000000
    31  O    0.000000   0.000000   0.000000   0.000000   0.000000   0.000000
    32  C    0.000000   0.000000   0.000000   0.000000   0.000000   0.000000
    33  H    0.000000   0.000000   0.000000   0.000000   0.000006   0.000000
    34  C    0.000000   0.000000   0.000000   0.000000   0.000000   0.000000
    35  H    0.000000   0.000000   0.000000   0.000000   0.000000   0.000000
    36  H    0.000000   0.000000   0.000000   0.000000   0.000000   0.000000
    37  H    0.000000   0.000000   0.000000   0.000000   0.000000   0.000000
               7          8          9         10         11         12
     1  C   -0.005873   0.004627   0.000175   0.000068  -0.002704   0.000114
     2  C   -0.004715   0.000363  -0.003894   0.000586   0.005703   0.000255
     3  C   -0.019021  -0.005010   0.000640  -0.003656   0.007054   0.000068
     4  N    0.000626  -0.000308   0.041442   0.038810   0.000072  -0.000013
     5  C    0.013715   0.000126   0.000001  -0.000003   0.050564  -0.001624
     6  H    0.000117  -0.000014   0.000440   0.000021   0.000331  -0.000635
     7  C    0.046647  -0.006100  -0.000006   0.000030   0.034771   0.000139
     8  H   -0.006100   0.016586   0.000023   0.000554   0.000213   0.000002
     9  C   -0.000006   0.000023  -0.048880  -0.004152   0.000003   0.000002
    10  C    0.000030   0.000554  -0.004152  -0.046194  -0.000002   0.000000
    11  C    0.034771   0.000213   0.000003  -0.000002  -0.104834  -0.009031
    12  H    0.000139   0.000002   0.000002   0.000000  -0.009031   0.060070
    13  H    0.000022  -0.000345   0.000000   0.000002  -0.006932  -0.000027
    14  H   -0.000006  -0.000001  -0.005790   0.000053   0.000000  -0.000001
    15  H    0.000000   0.000000  -0.000154  -0.000965   0.000000   0.000000
    16  H   -0.000006   0.000000  -0.006849   0.000025  -0.000002   0.000001
    17  H   -0.000084   0.000407   0.000048  -0.006153  -0.000001   0.000000
    18  H   -0.000001  -0.000087  -0.000917   0.000111   0.000000   0.000000
    19  H   -0.000041   0.000326  -0.000042  -0.004798  -0.000001   0.000000
    20  C   -0.013941  -0.000010   0.000000   0.000000  -0.067579  -0.001901
    21  C    0.000201   0.000000   0.000000   0.000000   0.019349  -0.000638
    22  H   -0.000322  -0.000003   0.000000   0.000000   0.005398  -0.000072
    23  C    0.000013   0.000000   0.000000   0.000000  -0.000003   0.000073
    24  H    0.000012   0.000000   0.000000   0.000000   0.001408   0.000137
    25  C    0.000000   0.000000   0.000000   0.000000  -0.000015  -0.000004
    26  O    0.000008   0.000000   0.000000   0.000000  -0.000305  -0.000001
    27  C    0.000000   0.000000   0.000000   0.000000   0.000000   0.000000
    28  C    0.000000   0.000000   0.000000   0.000000  -0.000002  -0.000002
    29  H    0.000000   0.000000   0.000000   0.000000   0.000000   0.000000
    30  C    0.000000   0.000000   0.000000   0.000000   0.000000   0.000000
    31  O    0.000000   0.000000   0.000000   0.000000   0.000000   0.000000
    32  C    0.000000   0.000000   0.000000   0.000000   0.000000   0.000000
    33  H    0.000000   0.000000   0.000000   0.000000  -0.000005  -0.000004
    34  C    0.000000   0.000000   0.000000   0.000000   0.000000   0.000000
    35  H    0.000000   0.000000   0.000000   0.000000   0.000000   0.000000
    36  H    0.000000   0.000000   0.000000   0.000000   0.000000   0.000000
    37  H    0.000000   0.000000   0.000000   0.000000   0.000000   0.000000
              13         14         15         16         17         18
     1  C   -0.000023   0.002128  -0.000109   0.002087   0.002108  -0.000157
     2  C    0.000074   0.001674  -0.000009   0.001811   0.000041  -0.000007
     3  C    0.000085   0.000014  -0.000009   0.000003   0.001200  -0.000016
     4  N   -0.000008  -0.009861  -0.000557  -0.010058  -0.009426  -0.000416
     5  C   -0.000101  -0.000073  -0.000001  -0.000112  -0.000009   0.000000
     6  H    0.000001   0.000249  -0.000071   0.000414   0.000000  -0.000001
     7  C    0.000022  -0.000006   0.000000  -0.000006  -0.000084  -0.000001
     8  H   -0.000345  -0.000001   0.000000   0.000000   0.000407  -0.000087
     9  C    0.000000  -0.005790  -0.000154  -0.006849   0.000048  -0.000917
    10  C    0.000002   0.000053  -0.000965   0.000025  -0.006153   0.000111
    11  C   -0.006932   0.000000   0.000000  -0.000002  -0.000001   0.000000
    12  H   -0.000027  -0.000001   0.000000   0.000001   0.000000   0.000000
    13  H    0.037397   0.000000   0.000000   0.000000   0.000001   0.000000
    14  H    0.000000   0.065346  -0.002702  -0.015706  -0.000184  -0.000041
    15  H    0.000000  -0.002702   0.029825  -0.002264   0.000039   0.000312
    16  H    0.000000  -0.015706  -0.002264   0.065981   0.000411   0.000091
    17  H    0.000001  -0.000184   0.000039   0.000411   0.062641  -0.001491
    18  H    0.000000  -0.000041   0.000312   0.000091  -0.001491   0.028135
    19  H   -0.000001   0.000441   0.000009  -0.000192  -0.014912  -0.003060
    20  C   -0.000505   0.000000   0.000000   0.000000   0.000000   0.000000
    21  C    0.000028   0.000000   0.000000   0.000000   0.000000   0.000000
    22  H    0.000674   0.000000   0.000000   0.000000   0.000000   0.000000
    23  C   -0.000001   0.000000   0.000000   0.000000   0.000000   0.000000
    24  H   -0.000003   0.000000   0.000000   0.000000   0.000000   0.000000
    25  C    0.000000   0.000000   0.000000   0.000000   0.000000   0.000000
    26  O   -0.000001   0.000000   0.000000   0.000000   0.000000   0.000000
    27  C    0.000000   0.000000   0.000000   0.000000   0.000000   0.000000
    28  C    0.000000   0.000000   0.000000   0.000000   0.000000   0.000000
    29  H    0.000000   0.000000   0.000000   0.000000   0.000000   0.000000
    30  C    0.000000   0.000000   0.000000   0.000000   0.000000   0.000000
    31  O    0.000000   0.000000   0.000000   0.000000   0.000000   0.000000
    32  C    0.000000   0.000000   0.000000   0.000000   0.000000   0.000000
    33  H    0.000000   0.000000   0.000000   0.000000   0.000000   0.000000
    34  C    0.000000   0.000000   0.000000   0.000000   0.000000   0.000000
    35  H    0.000000   0.000000   0.000000   0.000000   0.000000   0.000000
    36  H    0.000000   0.000000   0.000000   0.000000   0.000000   0.000000
    37  H    0.000000   0.000000   0.000000   0.000000   0.000000   0.000000
              19         20         21         22         23         24
     1  C    0.001916   0.000195   0.000008   0.000002   0.000000   0.000002
     2  C    0.000026   0.000922  -0.000165  -0.000001  -0.000001  -0.000126
     3  C    0.000846   0.000288  -0.000047  -0.000004   0.000000   0.000000
     4  N   -0.009750  -0.000002   0.000000   0.000000   0.000000   0.000000
     5  C   -0.000006  -0.013476  -0.001833  -0.000037   0.000082   0.000841
     6  H   -0.000001  -0.000018  -0.000001   0.000000   0.000000  -0.000002
     7  C   -0.000041  -0.013941   0.000201  -0.000322   0.000013   0.000012
     8  H    0.000326  -0.000010   0.000000  -0.000003   0.000000   0.000000
     9  C   -0.000042   0.000000   0.000000   0.000000   0.000000   0.000000
    10  C   -0.004798   0.000000   0.000000   0.000000   0.000000   0.000000
    11  C   -0.000001  -0.067579   0.019349   0.005398  -0.000003   0.001408
    12  H    0.000000  -0.001901  -0.000638  -0.000072   0.000073   0.000137
    13  H   -0.000001  -0.000505   0.000028   0.000674  -0.000001  -0.000003
    14  H    0.000441   0.000000   0.000000   0.000000   0.000000   0.000000
    15  H    0.000009   0.000000   0.000000   0.000000   0.000000   0.000000
    16  H   -0.000192   0.000000   0.000000   0.000000   0.000000   0.000000
    17  H   -0.014912   0.000000   0.000000   0.000000   0.000000   0.000000
    18  H   -0.003060   0.000000   0.000000   0.000000   0.000000   0.000000
    19  H    0.064213   0.000000   0.000000   0.000000   0.000000   0.000000
    20  C    0.000000   0.077415   0.069422   0.011931  -0.010399   0.016026
    21  C    0.000000   0.069422  -0.110748  -0.007233  -0.079301  -0.003434
    22  H    0.000000   0.011931  -0.007233   0.005188  -0.000567  -0.000411
    23  C    0.000000  -0.010399  -0.079301  -0.000567   0.038308  -0.009082
    24  H    0.000000   0.016026  -0.003434  -0.000411  -0.009082  -0.046181
    25  C    0.000000  -0.001641   0.003002  -0.000187   0.052462   0.001870
    26  O    0.000000  -0.000358   0.018001  -0.005585  -0.004321  -0.000263
    27  C    0.000000  -0.000005   0.000007   0.000002   0.006556   0.000027
    28  C    0.000000   0.000243   0.003319   0.000007   0.000792  -0.000385
    29  H    0.000000   0.000004  -0.000164   0.000027  -0.000866   0.000004
    30  C    0.000000   0.000000   0.000021   0.000000   0.000043  -0.000003
    31  O    0.000000  -0.000001   0.000002  -0.000003  -0.001047   0.000000
    32  C    0.000000   0.000005   0.000040   0.000000  -0.000415  -0.000037
    33  H    0.000000   0.000026   0.000271   0.000004   0.000086   0.000200
    34  C    0.000000   0.000000  -0.000010   0.000000  -0.000096   0.000001
    35  H    0.000000   0.000000   0.000000   0.000000   0.000010   0.000000
    36  H    0.000000   0.000000   0.000000   0.000000   0.000004   0.000002
    37  H    0.000000   0.000000   0.000000   0.000000   0.000000   0.000000
              25         26         27         28         29         30
     1  C    0.000000   0.000000   0.000000   0.000000   0.000000   0.000000
     2  C    0.000000   0.000000   0.000000   0.000000   0.000000   0.000000
     3  C    0.000000   0.000000   0.000000   0.000000   0.000000   0.000000
     4  N    0.000000   0.000000   0.000000   0.000000   0.000000   0.000000
     5  C   -0.000002  -0.000004   0.000000   0.000000   0.000000   0.000000
     6  H    0.000000   0.000000   0.000000   0.000000   0.000000   0.000000
     7  C    0.000000   0.000008   0.000000   0.000000   0.000000   0.000000
     8  H    0.000000   0.000000   0.000000   0.000000   0.000000   0.000000
     9  C    0.000000   0.000000   0.000000   0.000000   0.000000   0.000000
    10  C    0.000000   0.000000   0.000000   0.000000   0.000000   0.000000
    11  C   -0.000015  -0.000305   0.000000  -0.000002   0.000000   0.000000
    12  H   -0.000004  -0.000001   0.000000  -0.000002   0.000000   0.000000
    13  H    0.000000  -0.000001   0.000000   0.000000   0.000000   0.000000
    14  H    0.000000   0.000000   0.000000   0.000000   0.000000   0.000000
    15  H    0.000000   0.000000   0.000000   0.000000   0.000000   0.000000
    16  H    0.000000   0.000000   0.000000   0.000000   0.000000   0.000000
    17  H    0.000000   0.000000   0.000000   0.000000   0.000000   0.000000
    18  H    0.000000   0.000000   0.000000   0.000000   0.000000   0.000000
    19  H    0.000000   0.000000   0.000000   0.000000   0.000000   0.000000
    20  C   -0.001641  -0.000358  -0.000005   0.000243   0.000004   0.000000
    21  C    0.003002   0.018001   0.000007   0.003319  -0.000164   0.000021
    22  H   -0.000187  -0.005585   0.000002   0.000007   0.000027   0.000000
    23  C    0.052462  -0.004321   0.006556   0.000792  -0.000866   0.000043
    24  H    0.001870  -0.000263   0.000027  -0.000385   0.000004  -0.000003
    25  C    0.014008  -0.003361  -0.000799  -0.035550   0.000798  -0.002987
    26  O   -0.003361  -0.052235  -0.002175  -0.000181   0.000898  -0.000033
    27  C   -0.000799  -0.002175  -0.020330  -0.003605   0.001996  -0.032634
    28  C   -0.035550  -0.000181  -0.003605  -0.017176   0.000054  -0.000021
    29  H    0.000798   0.000898   0.001996   0.000054  -0.011375  -0.000135
    30  C   -0.002987  -0.000033  -0.032634  -0.000021  -0.000135  -0.004319
    31  O    0.000322   0.003346   0.015732   0.000005  -0.004467   0.002605
    32  C   -0.002103  -0.000001   0.002594   0.037165  -0.000001   0.000780
    33  H    0.000106   0.000003  -0.000071   0.003460   0.000000  -0.000036
    34  C    0.003372   0.000004   0.002446   0.000717   0.000009   0.022086
    35  H   -0.000524   0.000000   0.000094  -0.000071   0.000008   0.002703
    36  H   -0.000265   0.000000  -0.000035   0.006089   0.000000  -0.000115
    37  H   -0.000018   0.000000  -0.000294  -0.000328   0.000000   0.002413
              31         32         33         34         35         36
     1  C    0.000000   0.000000   0.000000   0.000000   0.000000   0.000000
     2  C    0.000000   0.000000   0.000000   0.000000   0.000000   0.000000
     3  C    0.000000   0.000000   0.000000   0.000000   0.000000   0.000000
     4  N    0.000000   0.000000   0.000000   0.000000   0.000000   0.000000
     5  C    0.000000   0.000000   0.000006   0.000000   0.000000   0.000000
     6  H    0.000000   0.000000   0.000000   0.000000   0.000000   0.000000
     7  C    0.000000   0.000000   0.000000   0.000000   0.000000   0.000000
     8  H    0.000000   0.000000   0.000000   0.000000   0.000000   0.000000
     9  C    0.000000   0.000000   0.000000   0.000000   0.000000   0.000000
    10  C    0.000000   0.000000   0.000000   0.000000   0.000000   0.000000
    11  C    0.000000   0.000000  -0.000005   0.000000   0.000000   0.000000
    12  H    0.000000   0.000000  -0.000004   0.000000   0.000000   0.000000
    13  H    0.000000   0.000000   0.000000   0.000000   0.000000   0.000000
    14  H    0.000000   0.000000   0.000000   0.000000   0.000000   0.000000
    15  H    0.000000   0.000000   0.000000   0.000000   0.000000   0.000000
    16  H    0.000000   0.000000   0.000000   0.000000   0.000000   0.000000
    17  H    0.000000   0.000000   0.000000   0.000000   0.000000   0.000000
    18  H    0.000000   0.000000   0.000000   0.000000   0.000000   0.000000
    19  H    0.000000   0.000000   0.000000   0.000000   0.000000   0.000000
    20  C   -0.000001   0.000005   0.000026   0.000000   0.000000   0.000000
    21  C    0.000002   0.000040   0.000271  -0.000010   0.000000   0.000000
    22  H   -0.000003   0.000000   0.000004   0.000000   0.000000   0.000000
    23  C   -0.001047  -0.000415   0.000086  -0.000096   0.000010   0.000004
    24  H    0.000000  -0.000037   0.000200   0.000001   0.000000   0.000002
    25  C    0.000322  -0.002103   0.000106   0.003372  -0.000524  -0.000265
    26  O    0.003346  -0.000001   0.000003   0.000004   0.000000   0.000000
    27  C    0.015732   0.002594  -0.000071   0.002446   0.000094  -0.000035
    28  C    0.000005   0.037165   0.003460   0.000717  -0.000071   0.006089
    29  H   -0.004467  -0.000001   0.000000   0.000009   0.000008   0.000000
    30  C    0.002605   0.000780  -0.000036   0.022086   0.002703  -0.000115
    31  O   -0.056933  -0.000058   0.000004  -0.000257  -0.000278   0.000000
    32  C   -0.000058  -0.001474   0.005116  -0.042470  -0.000420   0.002101
    33  H    0.000004   0.005116  -0.032170  -0.000146  -0.000002   0.000329
    34  C   -0.000257  -0.042470  -0.000146  -0.010569   0.004438  -0.000585
    35  H   -0.000278  -0.000420  -0.000002   0.004438  -0.034585   0.000015
    36  H    0.000000   0.002101   0.000329  -0.000585   0.000015  -0.034074
    37  H    0.000006   0.002858   0.000020   0.001218   0.000578   0.000533
              37
     1  C    0.000000
     2  C    0.000000
     3  C    0.000000
     4  N    0.000000
     5  C    0.000000
     6  H    0.000000
     7  C    0.000000
     8  H    0.000000
     9  C    0.000000
    10  C    0.000000
    11  C    0.000000
    12  H    0.000000
    13  H    0.000000
    14  H    0.000000
    15  H    0.000000
    16  H    0.000000
    17  H    0.000000
    18  H    0.000000
    19  H    0.000000
    20  C    0.000000
    21  C    0.000000
    22  H    0.000000
    23  C    0.000000
    24  H    0.000000
    25  C   -0.000018
    26  O    0.000000
    27  C   -0.000294
    28  C   -0.000328
    29  H    0.000000
    30  C    0.002413
    31  O    0.000006
    32  C    0.002858
    33  H    0.000020
    34  C    0.001218
    35  H    0.000578
    36  H    0.000533
    37  H   -0.038807
 Mulliken charges:
               1
     1  C    5.948641
     2  C    6.015189
     3  C    6.028130
     4  N    6.975368
     5  C    5.948019
     6  H    0.981638
     7  C    5.953815
     8  H    0.988652
     9  C    6.027911
    10  C    6.025662
    11  C    6.066549
    12  H    0.953092
    13  H    0.969664
    14  H    0.964461
    15  H    0.976654
    16  H    0.964364
    17  H    0.965363
    18  H    0.977544
    19  H    0.965027
    20  C    5.933359
    21  C    6.089904
    22  H    0.991192
    23  C    6.007668
    24  H    1.039399
    25  C    5.971516
    26  O    8.046566
    27  C    6.030494
    28  C    6.005471
    29  H    1.013210
    30  C    6.009632
    31  O    8.041022
    32  C    5.996320
    33  H    1.022805
    34  C    6.019842
    35  H    1.028033
    36  H    1.026002
    37  H    1.031822
 Sum of Mulliken charges = 142.00000
 Mulliken charges with hydrogens summed into heavy atoms:
               1
     1  C    5.948641
     2  C    6.996827
     3  C    7.016782
     4  N    6.975368
     5  C    6.901112
     7  C    6.923479
     9  C    8.933389
    10  C    8.933596
    11  C    6.066549
    20  C    6.924550
    21  C    7.129303
    23  C    6.007668
    25  C    5.971516
    26  O    8.046566
    27  C    6.030494
    28  C    7.028276
    30  C    7.037665
    31  O    9.054232
    32  C    7.022322
    34  C    7.051664
 Electronic spatial extent (au):  <R**2>=            -15.3512
 Charge=              0.0000 electrons
 Dipole moment (field-independent basis, Debye):
    X=             12.2433    Y=             -1.0406    Z=             -4.7260  Tot=             13.1650
 Quadrupole moment (field-independent basis, Debye-Ang):
   XX=             30.5782   YY=             -5.5119   ZZ=             -4.4184
   XY=             28.2608   XZ=              1.3972   YZ=            -12.6111
 Traceless Quadrupole moment (field-independent basis, Debye-Ang):
   XX=             23.6956   YY=            -12.3945   ZZ=            -11.3010
   XY=             28.2608   XZ=              1.3972   YZ=            -12.6111
 Octapole moment (field-independent basis, Debye-Ang**2):
  XXX=            390.5386  YYY=            -28.8858  ZZZ=            -45.7664  XYY=             90.7608
  XXY=             33.3402  XXZ=            -92.2312  XZZ=             60.5960  YZZ=             -9.1720
  YYZ=            -40.2381  XYZ=              1.1395
 Hexadecapole moment (field-independent basis, Debye-Ang**3):
 XXXX=           1804.9158 YYYY=           -151.2157 ZZZZ=            -83.5313 XXXY=            749.8726
 XXXZ=           -124.2408 YYYX=            326.0763 YYYZ=           -142.1563 ZZZX=             42.8695
 ZZZY=           -115.2536 XXYY=             50.8381 XXZZ=             34.0978 YYZZ=            -27.3225
 XXYZ=           -258.7178 YYXZ=              7.6559 ZZXY=            156.5891
 N-N= 1.361272413161D+03 E-N= 3.545435777192D-01  KE= 2.898325187705D-03
 Leave Link  601 at Wed Jul  5 11:28:01 2017, MaxMem=  1879048192 cpu:         0.5
 (Enter /share/apps/gaussian/g09_D01/g09/l9999.exe)
 1\1\GINC-NXN37\SP\RwB97XD TD-FC\6-31G(d)\C17H17N1O2\BTX008\05-Jul-2017
 \0\\#p wb97xd 6-31G* nosymm td=(nstates=2) density=(Transition=1) pop=
 SaveNTO\\Title\\0,1\C,0,-2.561045,2.954113,1.800653\C,0,-1.453614,2.12
 3705,2.11922\C,0,-2.395118,3.884027,0.746328\N,0,-3.735091,2.854836,2.
 478577\C,0,-0.257335,2.254822,1.452784\H,0,-1.535511,1.379261,2.89957\
 C,0,-1.189555,3.988311,0.088085\H,0,-3.219319,4.514257,0.441933\C,0,-3
 .874215,1.876051,3.53812\C,0,-4.839077,3.744247,2.165869\C,0,-0.079646
 ,3.191747,0.417146\H,0,0.565679,1.610013,1.746085\H,0,-1.090979,4.7105
 09,-0.716946\H,0,-3.760779,0.853886,3.155524\H,0,-4.862027,1.966878,3.
 986117\H,0,-3.134539,2.036154,4.330126\H,0,-4.544216,4.794091,2.272894
 \H,0,-5.657968,3.554154,2.859682\H,0,-5.212008,3.588295,1.147805\C,0,1
 .142009,3.334818,-0.334298\C,0,2.304719,2.65957,-0.162136\H,0,1.119006
 ,4.060213,-1.147889\C,0,3.424995,2.888199,-1.059609\H,0,2.407243,1.928
 444,0.629659\C,0,4.730578,2.228227,-0.807332\O,0,3.297663,3.635176,-2.
 057585\C,0,5.784111,2.39456,-1.739495\C,0,4.979595,1.442845,0.332629\H
 ,0,4.72778,3.522407,-2.78625\C,0,7.02529,1.784468,-1.519498\O,0,5.6386
 02,3.129431,-2.853437\C,0,6.204812,0.838836,0.543916\H,0,4.20399,1.302
 276,1.074422\C,0,7.231178,1.015415,-0.388505\H,0,7.813944,1.955377,-2.
 243553\H,0,6.367472,0.249632,1.43761\H,0,8.201859,0.560885,-0.21421\\V
 ersion=ES64L-G09RevD.01\HF=-862.9510726\RMSD=7.848e-09\PG=C01 [X(C17H1
 7N1O2)]\\@


 MISERY NO LONGER LOVES COMPANY.  NOWADAYS IT INSISTS ON IT.

                                              -- BAKER'S LAW
 Job cpu time:       0 days  0 hours 15 minutes  2.1 seconds.
 File lengths (MBytes):  RWF=    148 Int=      0 D2E=      0 Chk=     14 Scr=      1
 Normal termination of Gaussian 09 at Wed Jul  5 11:28:01 2017.
