 Entering Gaussian System, Link 0=g09
 Input=H_ap-2.com
 Output=H_ap-2.out
 Initial command:
 /share/apps/gaussian/g09_D01/g09/l1.exe "/tmp/4048847.1.chemistry.q/Gau-2768.inp" -scrdir="/tmp/4048847.1.chemistry.q/"
 Entering Link 1 = /share/apps/gaussian/g09_D01/g09/l1.exe PID=      2769.
  
 Copyright (c) 1988,1990,1992,1993,1995,1998,2003,2009,2013,
            Gaussian, Inc.  All Rights Reserved.
  
 This is part of the Gaussian(R) 09 program.  It is based on
 the Gaussian(R) 03 system (copyright 2003, Gaussian, Inc.),
 the Gaussian(R) 98 system (copyright 1998, Gaussian, Inc.),
 the Gaussian(R) 94 system (copyright 1995, Gaussian, Inc.),
 the Gaussian 92(TM) system (copyright 1992, Gaussian, Inc.),
 the Gaussian 90(TM) system (copyright 1990, Gaussian, Inc.),
 the Gaussian 88(TM) system (copyright 1988, Gaussian, Inc.),
 the Gaussian 86(TM) system (copyright 1986, Carnegie Mellon
 University), and the Gaussian 82(TM) system (copyright 1983,
 Carnegie Mellon University). Gaussian is a federally registered
 trademark of Gaussian, Inc.
  
 This software contains proprietary and confidential information,
 including trade secrets, belonging to Gaussian, Inc.
  
 This software is provided under written license and may be
 used, copied, transmitted, or stored only in accord with that
 written license.
  
 The following legend is applicable only to US Government
 contracts under FAR:
  
                    RESTRICTED RIGHTS LEGEND
  
 Use, reproduction and disclosure by the US Government is
 subject to restrictions as set forth in subparagraphs (a)
 and (c) of the Commercial Computer Software - Restricted
 Rights clause in FAR 52.227-19.
  
 Gaussian, Inc.
 340 Quinnipiac St., Bldg. 40, Wallingford CT 06492
  
  
 ---------------------------------------------------------------
 Warning -- This program may not be used in any manner that
 competes with the business of Gaussian, Inc. or will provide
 assistance to any competitor of Gaussian, Inc.  The licensee
 of this program is prohibited from giving any competitor of
 Gaussian, Inc. access to this program.  By using this program,
 the user acknowledges that Gaussian, Inc. is engaged in the
 business of creating and licensing software in the field of
 computational chemistry and represents and warrants to the
 licensee that it is not a competitor of Gaussian, Inc. and that
 it will not use this program in any manner prohibited above.
 ---------------------------------------------------------------
  

 Cite this work as:
 Gaussian 09, Revision D.01,
 M. J. Frisch, G. W. Trucks, H. B. Schlegel, G. E. Scuseria, 
 M. A. Robb, J. R. Cheeseman, G. Scalmani, V. Barone, B. Mennucci, 
 G. A. Petersson, H. Nakatsuji, M. Caricato, X. Li, H. P. Hratchian, 
 A. F. Izmaylov, J. Bloino, G. Zheng, J. L. Sonnenberg, M. Hada, 
 M. Ehara, K. Toyota, R. Fukuda, J. Hasegawa, M. Ishida, T. Nakajima, 
 Y. Honda, O. Kitao, H. Nakai, T. Vreven, J. A. Montgomery, Jr., 
 J. E. Peralta, F. Ogliaro, M. Bearpark, J. J. Heyd, E. Brothers, 
 K. N. Kudin, V. N. Staroverov, T. Keith, R. Kobayashi, J. Normand, 
 K. Raghavachari, A. Rendell, J. C. Burant, S. S. Iyengar, J. Tomasi, 
 M. Cossi, N. Rega, J. M. Millam, M. Klene, J. E. Knox, J. B. Cross, 
 V. Bakken, C. Adamo, J. Jaramillo, R. Gomperts, R. E. Stratmann, 
 O. Yazyev, A. J. Austin, R. Cammi, C. Pomelli, J. W. Ochterski, 
 R. L. Martin, K. Morokuma, V. G. Zakrzewski, G. A. Voth, 
 P. Salvador, J. J. Dannenberg, S. Dapprich, A. D. Daniels, 
 O. Farkas, J. B. Foresman, J. V. Ortiz, J. Cioslowski, 
 and D. J. Fox, Gaussian, Inc., Wallingford CT, 2013.
 
 ******************************************
 Gaussian 09:  ES64L-G09RevD.01 24-Apr-2013
                26-Sep-2017 
 ******************************************
 %chk=H_ap.chk
 %nproc=2
 Will use up to    2 processors via shared memory.
 %mem=14GB
 ----------------------------------------------------------------------
 #p wb97xd 6-31G* nosymm td=(nstates=2) density=(Transition=1) pop=Save
 NTO
 ----------------------------------------------------------------------
 1/38=1/1;
 2/12=2,15=1,17=6,18=5,40=1/2;
 3/5=1,6=6,7=1,11=9,16=1,25=1,30=1,74=-58/1,2,8,3;
 4//1;
 5/5=2,38=5/2;
 8/6=1,10=2,108=2/1;
 9/41=2,42=1,70=2/14;
 6/7=2,8=2,9=2,10=2,29=1,89=10/1;
 99/5=1,9=1/99;
 Leave Link    1 at Tue Sep 26 17:45:36 2017, MaxMem=  1879048192 cpu:         0.1
 (Enter /share/apps/gaussian/g09_D01/g09/l101.exe)
 -----
 Title
 -----
 Symbolic Z-matrix:
 Charge =  0 Multiplicity = 1
 C                     2.58138  -2.10589  -1.79035 
 C                     1.46959  -2.92571  -2.11478 
 C                     2.4183   -1.17289  -0.73948 
 N                     3.7607   -2.22074  -2.46354 
 C                     0.27562  -2.79722  -1.44193 
 H                     1.54381  -3.65915  -2.90688 
 C                     1.21316  -1.06845  -0.07692 
 H                     3.23901  -0.53269  -0.44076 
 C                     3.8899   -3.19103  -3.53123 
 C                     4.88429  -1.37099  -2.11673 
 C                     0.10387  -1.86764  -0.40018 
 H                    -0.55002  -3.43786  -1.73848 
 H                     1.11437  -0.33849   0.72118 
 H                     3.76827  -4.21828  -3.16427 
 H                     4.8785   -3.10471  -3.97868 
 H                     3.15148  -3.01996  -4.32224 
 H                     4.64121  -0.3091   -2.24609 
 H                     5.7255   -1.6058   -2.76957 
 H                     5.2062   -1.52794  -1.08139 
 C                    -1.1174   -1.73254   0.3612 
 C                    -2.27635  -2.40992   0.1825 
 H                    -1.0912   -1.01527   1.18203 
 C                    -3.39808  -2.21331   1.09092 
 H                    -2.37926  -3.1241   -0.62463 
 C                    -4.70039  -2.87169   0.8255 
 O                    -3.26592  -1.49496   2.10843 
 C                    -5.76572  -2.70032   1.74455 
 C                    -4.94173  -3.65594  -0.31879 
 H                    -4.71165  -1.60365   2.83003 
 C                    -7.01369  -3.28613   1.49892 
 O                    -5.62779  -1.9824    2.87044 
 C                    -6.16904  -4.24869  -0.54687 
 H                    -4.15779  -3.80628  -1.05003 
 C                    -7.21108  -4.05196   0.36539 
 H                    -7.81539  -3.10458   2.20559 
 H                    -6.32249  -4.84456  -1.43845 
 H                    -8.18812  -4.4875    0.17876 
 
 NAtoms=     37 NQM=       37 NQMF=       0 NMMI=      0 NMMIF=      0
                NMic=       0 NMicF=      0.
                    Isotopes and Nuclear Properties:
 (Nuclear quadrupole moments (NQMom) in fm**2, nuclear magnetic moments (NMagM)
  in nuclear magnetons)

  Atom         1           2           3           4           5           6           7           8           9          10
 IAtWgt=          12          12          12          14          12           1          12           1          12          12
 AtmWgt=  12.0000000  12.0000000  12.0000000  14.0030740  12.0000000   1.0078250  12.0000000   1.0078250  12.0000000  12.0000000
 NucSpn=           0           0           0           2           0           1           0           1           0           0
 AtZEff=   0.0000000   0.0000000   0.0000000   0.0000000   0.0000000   0.0000000   0.0000000   0.0000000   0.0000000   0.0000000
 NQMom=    0.0000000   0.0000000   0.0000000   2.0440000   0.0000000   0.0000000   0.0000000   0.0000000   0.0000000   0.0000000
 NMagM=    0.0000000   0.0000000   0.0000000   0.4037610   0.0000000   2.7928460   0.0000000   2.7928460   0.0000000   0.0000000
 AtZNuc=   6.0000000   6.0000000   6.0000000   7.0000000   6.0000000   1.0000000   6.0000000   1.0000000   6.0000000   6.0000000

  Atom        11          12          13          14          15          16          17          18          19          20
 IAtWgt=          12           1           1           1           1           1           1           1           1          12
 AtmWgt=  12.0000000   1.0078250   1.0078250   1.0078250   1.0078250   1.0078250   1.0078250   1.0078250   1.0078250  12.0000000
 NucSpn=           0           1           1           1           1           1           1           1           1           0
 AtZEff=   0.0000000   0.0000000   0.0000000   0.0000000   0.0000000   0.0000000   0.0000000   0.0000000   0.0000000   0.0000000
 NQMom=    0.0000000   0.0000000   0.0000000   0.0000000   0.0000000   0.0000000   0.0000000   0.0000000   0.0000000   0.0000000
 NMagM=    0.0000000   2.7928460   2.7928460   2.7928460   2.7928460   2.7928460   2.7928460   2.7928460   2.7928460   0.0000000
 AtZNuc=   6.0000000   1.0000000   1.0000000   1.0000000   1.0000000   1.0000000   1.0000000   1.0000000   1.0000000   6.0000000

  Atom        21          22          23          24          25          26          27          28          29          30
 IAtWgt=          12           1          12           1          12          16          12          12           1          12
 AtmWgt=  12.0000000   1.0078250  12.0000000   1.0078250  12.0000000  15.9949146  12.0000000  12.0000000   1.0078250  12.0000000
 NucSpn=           0           1           0           1           0           0           0           0           1           0
 AtZEff=   0.0000000   0.0000000   0.0000000   0.0000000   0.0000000   0.0000000   0.0000000   0.0000000   0.0000000   0.0000000
 NQMom=    0.0000000   0.0000000   0.0000000   0.0000000   0.0000000   0.0000000   0.0000000   0.0000000   0.0000000   0.0000000
 NMagM=    0.0000000   2.7928460   0.0000000   2.7928460   0.0000000   0.0000000   0.0000000   0.0000000   2.7928460   0.0000000
 AtZNuc=   6.0000000   1.0000000   6.0000000   1.0000000   6.0000000   8.0000000   6.0000000   6.0000000   1.0000000   6.0000000

  Atom        31          32          33          34          35          36          37
 IAtWgt=          16          12           1          12           1           1           1
 AtmWgt=  15.9949146  12.0000000   1.0078250  12.0000000   1.0078250   1.0078250   1.0078250
 NucSpn=           0           0           1           0           1           1           1
 AtZEff=   0.0000000   0.0000000   0.0000000   0.0000000   0.0000000   0.0000000   0.0000000
 NQMom=    0.0000000   0.0000000   0.0000000   0.0000000   0.0000000   0.0000000   0.0000000
 NMagM=    0.0000000   0.0000000   2.7928460   0.0000000   2.7928460   2.7928460   2.7928460
 AtZNuc=   8.0000000   6.0000000   1.0000000   6.0000000   1.0000000   1.0000000   1.0000000
 Leave Link  101 at Tue Sep 26 17:45:36 2017, MaxMem=  1879048192 cpu:         0.1
 (Enter /share/apps/gaussian/g09_D01/g09/l202.exe)
                          Input orientation:                          
 ---------------------------------------------------------------------
 Center     Atomic      Atomic             Coordinates (Angstroms)
 Number     Number       Type             X           Y           Z
 ---------------------------------------------------------------------
      1          6           0        2.581379   -2.105893   -1.790351
      2          6           0        1.469589   -2.925706   -2.114778
      3          6           0        2.418297   -1.172891   -0.739484
      4          7           0        3.760702   -2.220740   -2.463536
      5          6           0        0.275622   -2.797215   -1.441929
      6          1           0        1.543808   -3.659152   -2.906877
      7          6           0        1.213161   -1.068453   -0.076918
      8          1           0        3.239008   -0.532688   -0.440757
      9          6           0        3.889903   -3.191034   -3.531233
     10          6           0        4.884294   -1.370986   -2.116734
     11          6           0        0.103869   -1.867639   -0.400177
     12          1           0       -0.550023   -3.437858   -1.738482
     13          1           0        1.114370   -0.338494    0.721184
     14          1           0        3.768271   -4.218275   -3.164267
     15          1           0        4.878499   -3.104711   -3.978679
     16          1           0        3.151480   -3.019964   -4.322237
     17          1           0        4.641213   -0.309097   -2.246088
     18          1           0        5.725497   -1.605799   -2.769569
     19          1           0        5.206196   -1.527935   -1.081389
     20          6           0       -1.117404   -1.732539    0.361203
     21          6           0       -2.276353   -2.409923    0.182500
     22          1           0       -1.091198   -1.015275    1.182031
     23          6           0       -3.398076   -2.213310    1.090916
     24          1           0       -2.379263   -3.124101   -0.624627
     25          6           0       -4.700390   -2.871687    0.825503
     26          8           0       -3.265917   -1.494962    2.108429
     27          6           0       -5.765720   -2.700323    1.744545
     28          6           0       -4.941727   -3.655942   -0.318788
     29          1           0       -4.711652   -1.603647    2.830030
     30          6           0       -7.013689   -3.286127    1.498915
     31          8           0       -5.627792   -1.982401    2.870442
     32          6           0       -6.169035   -4.248695   -0.546866
     33          1           0       -4.157788   -3.806279   -1.050026
     34          6           0       -7.211084   -4.051961    0.365389
     35          1           0       -7.815385   -3.104576    2.205589
     36          1           0       -6.322494   -4.844558   -1.438454
     37          1           0       -8.188118   -4.487504    0.178763
 ---------------------------------------------------------------------
                    Distance matrix (angstroms):
                    1          2          3          4          5
     1  C    0.000000
     2  C    1.418951   0.000000
     3  C    1.414712   2.421537   0.000000
     4  N    1.362780   2.422356   2.423302   0.000000
     5  C    2.432250   1.376515   2.779013   3.677198   0.000000
     6  H    2.176189   1.082069   3.412304   2.679589   2.120685
     7  C    2.425728   2.769119   1.379222   3.676095   2.393920
     8  H    2.174593   3.414634   1.082896   2.685762   3.861617
     9  C    2.433195   2.816853   3.745983   1.448496   4.193246
    10  C    2.439269   3.751982   2.831466   1.450797   4.871278
    11  C    2.850860   2.434041   2.440160   4.213616   1.406719
    12  H    3.403307   2.117246   3.865100   4.537558   1.086304
    13  H    3.403472   3.855195   2.128378   4.548446   3.380513
    14  H    2.785411   2.838327   4.120239   2.116891   4.145414
    15  H    3.326135   3.889323   4.502989   2.080032   5.264611
    16  H    2.751543   2.776782   4.096993   2.112979   4.076316
    17  H    2.771117   4.113768   2.820878   2.115883   5.088790
    18  H    3.330832   4.503738   3.904642   2.081400   5.734391
    19  H    2.779627   4.121151   2.831137   2.116545   5.104079
    20  C    4.295297   3.774475   3.745117   5.658039   2.515023
    21  C    5.251870   4.424432   4.941664   6.594189   3.049810
    22  H    4.848951   4.590896   4.004200   6.187426   3.453791
    23  C    6.638307   5.871809   6.185712   7.992640   4.500256
    24  H    5.196502   4.132018   5.180443   6.472775   2.797008
    25  C    7.775172   6.834970   7.484036   9.101186   5.468774
    26  O    7.054402   6.504423   6.365896   8.414451   5.181062
    27  C    9.084211   8.203345   8.688014  10.425481   6.830872
    28  C    7.820823   6.698044   7.778977   9.077005   5.405515
    29  H    8.648033   8.025379   7.985183  10.009167   6.674364
    30  C   10.211638   9.227930   9.921621  11.529248   7.875383
    31  O    9.440801   8.724395   8.855869  10.800553   7.356002
    32  C    9.094372   7.909313   9.123593  10.314354   6.666449
    33  H    6.989690   5.794521   7.090562   8.198441   4.563652
    34  C   10.214046   9.098009  10.111121  11.477642   7.803304
    35  H   11.182916  10.242476  10.822805  12.513500   8.880498
    36  H    9.322182   8.053320   9.506373  10.469291   6.908456
    37  H   11.204086  10.048425  11.150151  12.445652   8.781720
                    6          7          8          9         10
     6  H    0.000000
     7  C    3.850937   0.000000
     8  H    4.327843   2.126847   0.000000
     9  C    2.472472   4.858250   4.128136   0.000000
    10  C    4.125394   4.210652   2.493714   2.510417   0.000000
    11  C    3.400954   1.404893   3.407761   5.088117   5.103498
    12  H    2.407955   3.388760   4.947814   4.794562   5.826391
    13  H    4.937004   1.086079   2.429384   5.824399   4.830336
    14  H    2.308052   5.097224   4.613153   1.097580   3.232629
    15  H    3.546312   5.727546   4.671202   1.088569   2.544145
    16  H    2.235266   5.058479   4.610867   1.095546   3.253616
    17  H    4.610144   4.127161   2.296822   3.243705   1.097009
    18  H    4.660647   5.282072   3.571773   2.542146   1.090391
    19  H    4.613846   4.142996   2.295812   3.240411   1.095533
    20  C    4.634030   2.462619   4.589238   6.507794   6.503174
    21  C    5.069364   3.747472   5.859323   7.240488   7.592149
    22  H    5.536471   2.626376   4.649410   7.194453   6.834829
    23  C    6.518821   4.892652   7.015796   8.685323   8.921669
    24  H    4.570058   4.175067   6.189846   6.910520   7.619649
    25  C    7.317156   6.247888   8.373074   9.637233  10.137802
    26  O    7.278081   5.001979   7.052543   9.267589   9.181139
    27  C    8.716896   7.394965   9.516266  11.013886  11.406113
    28  C    6.982863   6.681036   8.757512   9.409231  10.247162
    29  H    8.733154   6.621192   8.663602  10.815369  10.798462
    30  C    9.632285   8.665009  10.791735  12.008320  12.581839
    31  O    9.360596   7.504723   9.575273  11.533809  11.651168
    32  C    8.087346   8.051808  10.115890  10.545488  11.529171
    33  H    5.998145   6.106531   8.111732   8.443947   9.424848
    34  C    9.354686   8.947897  11.056201  11.796473  12.635139
    35  H   10.678921   9.532590  11.654071  13.035811  13.526628
    36  H    8.089509   8.538082  10.536126  10.554948  11.752356
    37  H   10.242935  10.006964  12.107997  12.701319  13.633413
                   11         12         13         14         15
    11  C    0.000000
    12  H    2.164307   0.000000
    13  H    2.148685   4.292577   0.000000
    14  H    5.156891   4.614063   6.098575   0.000000
    15  H    6.093695   5.882034   6.626412   1.770847   0.000000
    16  H    5.098857   4.533382   6.064338   1.776872   1.762898
    17  H    5.140421   6.082412   4.609142   4.109349   3.297519
    18  H    6.106167   6.618288   5.920634   3.288092   2.103827
    19  H    5.158797   6.100298   4.626779   3.693770   3.314800
    20  C    1.445496   2.763822   2.655892   6.517487   7.527834
    21  C    2.509789   2.779755   4.009738   7.142021   8.306025
    22  H    2.158261   3.832907   2.352646   7.263880   8.163085
    23  C    3.821841   4.197192   4.900388   8.572222   9.746645
    24  H    2.791956   2.164540   4.666507   6.740858   7.995321
    25  C    5.058785   4.911223   6.343452   9.457790  10.718656
    26  O    4.217517   5.094080   4.738014   9.203128  10.294449
    27  C    6.304385   6.314977   7.345825  10.830402  12.092073
    28  C    5.353755   4.620623   6.983073   9.180252  10.494546
    29  H    5.804582   6.446300   6.323794  10.708733  11.856758
    30  C    7.501886   7.230680   8.680942  11.784092  13.094315
    31  O    6.600156   7.010298   7.264880  11.388716  12.591751
    32  C    6.711205   5.800922   8.363349  10.276272  11.624717
    33  H    4.726769   3.691297   6.554263   8.213536   9.524898
    34  C    7.672411   7.012355   9.123026  11.533966  12.881235
    35  H    8.428203   8.273588   9.465474  12.816270  14.120193
    36  H    7.158087   5.948970   8.959665  10.256422  11.616456
    37  H    8.715269   7.944689  10.200235  12.417873  13.781615
                   16         17         18         19         20
    16  H    0.000000
    17  H    3.725386   0.000000
    18  H    3.322078   1.769503   0.000000
    19  H    4.117172   1.778003   1.767962   0.000000
    20  C    6.466486   6.479647   7.526160   6.489287   0.000000
    21  C    7.079984   7.626548   8.566851   7.639624   1.354233
    22  H    7.232984   6.716489   7.901341   6.711413   1.090373
    23  C    8.535198   8.910207   9.925321   8.900682   2.442353
    24  H    6.653742   7.735662   8.520161   7.765022   2.121460
    25  C    9.390052  10.162041  11.100727  10.177542   3.788274
    26  O    9.212062   9.104438  10.229989   9.052774   2.779451
    27  C   10.790017  11.399446  12.394486  11.390493   4.945410
    28  C    9.051634  10.331921  11.135487  10.396649   4.334433
    29  H   10.723326  10.720024  11.844391  10.661550   4.362378
    30  C   11.716967  12.598591  13.539953  12.612486   6.202758
    31  O   11.396788  11.594451  12.682615  11.541179   5.167428
    32  C   10.130904  11.630531  12.385685  11.708293   5.716171
    33  H    8.046804   9.543755  10.270261   9.637221   3.941561
    34  C   11.420227  12.700622  13.533913  12.753537   6.520174
    35  H   12.762907  13.520317  14.503586  13.522263   7.081468
    36  H   10.069833  11.892247  12.546534  12.001591   6.325851
    37  H   12.288171  13.708783  14.511567  13.775147   7.590660
                   21         22         23         24         25
    21  C    0.000000
    22  H    2.085353   0.000000
    23  C    1.456756   2.601014   0.000000
    24  H    1.082633   3.061090   2.193310   0.000000
    25  C    2.550026   4.074266   1.483215   2.748494   0.000000
    26  O    2.350658   2.411994   1.252526   3.303005   2.366217
    27  C    3.834058   5.000696   2.504027   4.154594   1.417368
    28  C    2.984639   4.904299   2.539943   2.634884   1.408084
    29  H    3.686486   4.021165   2.263115   4.436944   2.371957
    30  C    4.994300   6.350833   3.793423   5.100352   2.444708
    31  O    4.317401   4.936269   2.862109   4.906315   2.415094
    32  C    4.366467   6.263267   3.808325   3.953875   2.436486
    33  H    2.647400   4.709114   2.774589   1.951790   2.164599
    34  C    5.203970   6.880507   4.294887   5.018720   2.812176
    35  H    5.937702   7.115303   4.642141   6.128779   3.414977
    36  H    4.992614   6.992625   4.676901   4.378511   3.413055
    37  H    6.266205   7.964245   5.380380   6.020556   3.897869
                   26         27         28         29         30
    26  O    0.000000
    27  C    2.798986   0.000000
    28  C    3.656440   2.418577   0.000000
    29  H    1.619466   1.868699   3.765621   0.000000
    30  C    4.198282   1.400331   2.780977   3.146741   0.000000
    31  O    2.529173   1.342416   3.666417   0.992169   2.345527
    32  C    4.802263   2.794760   1.381905   4.530306   2.413545
    33  H    4.014157   3.408550   1.082530   4.495908   3.863137
    34  C    5.014058   2.412068   2.403104   4.279703   1.382153
    35  H    4.826796   2.139418   3.864504   3.503694   1.084004
    36  H    5.756981   3.878044   2.138452   5.596273   3.396262
    37  H    6.075112   3.393185   3.387935   5.237525   2.136678
                   31         32         33         34         35
    31  O    0.000000
    32  C    4.136064   0.000000
    33  H    4.567003   2.119910   0.000000
    34  C    3.614579   1.398849   3.374370   0.000000
    35  H    2.546933   3.405214   4.946659   2.156167   0.000000
    36  H    5.219304   1.083297   2.432047   2.161400   4.305265
    37  H    4.480619   2.158764   4.268202   1.085874   2.481823
                   36         37
    36  H    0.000000
    37  H    2.494681   0.000000
 Symmetry turned off by external request.
 Stoichiometry    C17H17NO2
 Framework group  C1[X(C17H17NO2)]
 Deg. of freedom   105
 Full point group                 C1      NOp   1
 Rotational constants (GHZ):      1.1009649      0.1072754      0.0980318
 Leave Link  202 at Tue Sep 26 17:45:37 2017, MaxMem=  1879048192 cpu:         0.0
 (Enter /share/apps/gaussian/g09_D01/g09/l301.exe)
 Standard basis: 6-31G(d) (6D, 7F)
 Ernie: Thresh=  0.10000D-02 Tol=  0.10000D-05 Strict=F.
   334 basis functions,   628 primitive gaussians,   334 cartesian basis functions
    71 alpha electrons       71 beta electrons
       nuclear repulsion energy      1360.7699584247 Hartrees.
 IExCor= 4639 DFT=T Ex+Corr=wB97XD ExCW=0 ScaHFX=  1.000000
 ScaDFX=  1.000000  1.000000  1.000000  1.000000 ScalE2=  1.000000  1.000000
 IRadAn=      0 IRanWt=     -1 IRanGd=            0 ICorTp=0 IEmpDi=121
  HFx wShort=  0.000000 wLong=  0.200000 cFull=  0.222036 cShort=  0.000000 cLong=  0.777964
  DFx wShort=  0.000000 wLong=  0.200000 cFull=  0.000000 cShort=  0.000000 cLong=  1.000000
 NAtoms=   37 NActive=   37 NUniq=   37 SFac= 1.00D+00 NAtFMM=   60 NAOKFM=F Big=F
 Integral buffers will be    131072 words long.
 Raffenetti 1 integral format.
 Two-electron integral symmetry is turned off.
 R6Disp:  Grimme-D2 Dispersion energy=       -0.0228800405 Hartrees.
 Nuclear repulsion after empirical dispersion term =     1360.7470783843 Hartrees.
 Leave Link  301 at Tue Sep 26 17:45:37 2017, MaxMem=  1879048192 cpu:         0.1
 (Enter /share/apps/gaussian/g09_D01/g09/l302.exe)
 NPDir=0 NMtPBC=     1 NCelOv=     1 NCel=       1 NClECP=     1 NCelD=      1
         NCelK=      1 NCelE2=     1 NClLst=     1 CellRange=     0.0.
 One-electron integrals computed using PRISM.
 NBasis=   334 RedAO= T EigKep=  3.72D-04  NBF=   334
 NBsUse=   334 1.00D-06 EigRej= -1.00D+00 NBFU=   334
 Precomputing XC quadrature grid using
 IXCGrd= 4 IRadAn=           0 IRanWt=          -1 IRanGd=           0 AccXCQ= 0.00D+00.
 Generated NRdTot=       0 NPtTot=           0 NUsed=           0 NTot=          32
 NSgBfM=   326   326   326   326   326 MxSgAt=    37 MxSgA2=    37.
 Leave Link  302 at Tue Sep 26 17:45:37 2017, MaxMem=  1879048192 cpu:         1.2
 (Enter /share/apps/gaussian/g09_D01/g09/l308.exe)
 Leave Link  308 at Tue Sep 26 17:45:37 2017, MaxMem=  1879048192 cpu:         0.1
 (Enter /share/apps/gaussian/g09_D01/g09/l303.exe)
 DipDrv:  MaxL=1.
 Leave Link  303 at Tue Sep 26 17:45:38 2017, MaxMem=  1879048192 cpu:         0.1
 (Enter /share/apps/gaussian/g09_D01/g09/l401.exe)
 ExpMin= 1.61D-01 ExpMax= 5.48D+03 ExpMxC= 8.25D+02 IAcc=1 IRadAn=         1 AccDes= 0.00D+00
 Harris functional with IExCor= 4639 and IRadAn=       1 diagonalized for initial guess.
 HarFok:  IExCor= 4639 AccDes= 0.00D+00 IRadAn=         1 IDoV= 1 UseB2=F ITyADJ=14
 ICtDFT=  3500011 ScaDFX=  1.000000  1.000000  1.000000  1.000000
 FoFCou: FMM=F IPFlag=           0 FMFlag=      100000 FMFlg1=           0
         NFxFlg=           0 DoJE=T BraDBF=F KetDBF=T FulRan=T
         wScrn=  0.000000 ICntrl=     500 IOpCl=  0 I1Cent=   200000004 NGrid=           0
         NMat0=    1 NMatS0=      1 NMatT0=    0 NMatD0=    1 NMtDS0=    0 NMtDT0=    0
 Symmetry not used in FoFCou.
 Harris En= -825.238561531140    
 JPrj=0 DoOrth=F DoCkMO=F.
 Leave Link  401 at Tue Sep 26 17:45:39 2017, MaxMem=  1879048192 cpu:         2.8
 (Enter /share/apps/gaussian/g09_D01/g09/l502.exe)
 Closed shell SCF:
 Using DIIS extrapolation, IDIIS=  1040.
 Two-electron integral symmetry not used.
 IVT=      357300 IEndB=      357300 NGot=  1879048192 MDV=  1878819423
 LenX=  1878819423 LenY=  1878707426
 Requested convergence on RMS density matrix=1.00D-08 within 128 cycles.
 Requested convergence on MAX density matrix=1.00D-06.
 Requested convergence on             energy=1.00D-06.
 No special actions if energy rises.
 Fock matrices will be formed incrementally for  20 cycles.
 Integral accuracy reduced to 1.0D-05 until final iterations.

 Cycle   1  Pass 0  IDiag  1:
 FoFJK:  IHMeth= 1 ICntrl=       0 DoSepK=T KAlg= 0 I1Cent=   0 FoldK=F
 IRaf=         1 NMat=   1 IRICut=       1 DoRegI=T DoRafI=F ISym2E= 0.
 FoFCou: FMM=F IPFlag=           0 FMFlag=      100000 FMFlg1=           0
         NFxFlg=           0 DoJE=T BraDBF=F KetDBF=F FulRan=T
         wScrn=  0.000000 ICntrl=     500 IOpCl=  0 I1Cent=           0 NGrid=           0
         NMat0=    1 NMatS0=      1 NMatT0=    0 NMatD0=    1 NMtDS0=    0 NMtDT0=    0
 Symmetry not used in FoFCou.
 E= -862.704938561901    
 DIIS: error= 5.83D-02 at cycle   1 NSaved=   1.
 NSaved= 1 IEnMin= 1 EnMin= -862.704938561901     IErMin= 1 ErrMin= 5.83D-02
 ErrMax= 5.83D-02  0.00D+00 EMaxC= 1.00D-01 BMatC= 8.35D-01 BMatP= 8.35D-01
 IDIUse=3 WtCom= 4.17D-01 WtEn= 5.83D-01
 Coeff-Com:  0.100D+01
 Coeff-En:   0.100D+01
 Coeff:      0.100D+01
 Gap=     0.296 Goal=   None    Shift=    0.000
 GapD=    0.296 DampG=1.000 DampE=0.500 DampFc=0.5000 IDamp=-1.
 Damping current iteration by 5.00D-01
 RMSDP=2.99D-03 MaxDP=1.15D-01              OVMax= 1.82D-01

 Cycle   2  Pass 0  IDiag  1:
 RMSU=  1.50D-03    CP:  9.98D-01
 E= -862.817312327667     Delta-E=       -0.112373765767 Rises=F Damp=T
 DIIS: error= 3.04D-02 at cycle   2 NSaved=   2.
 NSaved= 2 IEnMin= 2 EnMin= -862.817312327667     IErMin= 2 ErrMin= 3.04D-02
 ErrMax= 3.04D-02  0.00D+00 EMaxC= 1.00D-01 BMatC= 1.77D-01 BMatP= 8.35D-01
 IDIUse=3 WtCom= 6.96D-01 WtEn= 3.04D-01
 Coeff-Com: -0.444D+00 0.144D+01
 Coeff-En:   0.000D+00 0.100D+01
 Coeff:     -0.309D+00 0.131D+01
 Gap=     0.280 Goal=   None    Shift=    0.000
 RMSDP=1.32D-03 MaxDP=4.43D-02 DE=-1.12D-01 OVMax= 1.74D-01

 Cycle   3  Pass 0  IDiag  1:
 RMSU=  1.31D-03    CP:  1.00D+00  1.07D+00
 E= -862.903446691866     Delta-E=       -0.086134364199 Rises=F Damp=F
 DIIS: error= 1.21D-02 at cycle   3 NSaved=   3.
 NSaved= 3 IEnMin= 3 EnMin= -862.903446691866     IErMin= 3 ErrMin= 1.21D-02
 ErrMax= 1.21D-02  0.00D+00 EMaxC= 1.00D-01 BMatC= 5.37D-02 BMatP= 1.77D-01
 IDIUse=3 WtCom= 8.79D-01 WtEn= 1.21D-01
 Coeff-Com: -0.321D+00 0.665D+00 0.656D+00
 Coeff-En:   0.000D+00 0.000D+00 0.100D+01
 Coeff:     -0.282D+00 0.585D+00 0.698D+00
 Gap=     0.267 Goal=   None    Shift=    0.000
 RMSDP=8.38D-04 MaxDP=3.98D-02 DE=-8.61D-02 OVMax= 7.50D-02

 Cycle   4  Pass 0  IDiag  1:
 RMSU=  2.99D-04    CP:  9.98D-01  1.48D+00  6.33D-01
 E= -862.948372930491     Delta-E=       -0.044926238625 Rises=F Damp=F
 DIIS: error= 3.10D-03 at cycle   4 NSaved=   4.
 NSaved= 4 IEnMin= 4 EnMin= -862.948372930491     IErMin= 4 ErrMin= 3.10D-03
 ErrMax= 3.10D-03  0.00D+00 EMaxC= 1.00D-01 BMatC= 4.10D-03 BMatP= 5.37D-02
 IDIUse=3 WtCom= 9.69D-01 WtEn= 3.10D-02
 Coeff-Com: -0.139D+00 0.283D+00 0.381D+00 0.475D+00
 Coeff-En:   0.000D+00 0.000D+00 0.000D+00 0.100D+01
 Coeff:     -0.135D+00 0.274D+00 0.369D+00 0.491D+00
 Gap=     0.250 Goal=   None    Shift=    0.000
 RMSDP=1.88D-04 MaxDP=9.98D-03 DE=-4.49D-02 OVMax= 1.31D-02

 Cycle   5  Pass 0  IDiag  1:
 RMSU=  1.04D-04    CP:  9.98D-01  1.42D+00  7.19D-01  7.76D-01
 E= -862.951811155612     Delta-E=       -0.003438225121 Rises=F Damp=F
 DIIS: error= 3.88D-04 at cycle   5 NSaved=   5.
 NSaved= 5 IEnMin= 5 EnMin= -862.951811155612     IErMin= 5 ErrMin= 3.88D-04
 ErrMax= 3.88D-04  0.00D+00 EMaxC= 1.00D-01 BMatC= 8.65D-05 BMatP= 4.10D-03
 IDIUse=3 WtCom= 9.96D-01 WtEn= 3.88D-03
 Coeff-Com: -0.335D-03-0.590D-03 0.338D-01 0.135D+00 0.832D+00
 Coeff-En:   0.000D+00 0.000D+00 0.000D+00 0.000D+00 0.100D+01
 Coeff:     -0.334D-03-0.588D-03 0.337D-01 0.134D+00 0.833D+00
 Gap=     0.250 Goal=   None    Shift=    0.000
 RMSDP=5.58D-05 MaxDP=2.08D-03 DE=-3.44D-03 OVMax= 6.64D-03

 Cycle   6  Pass 0  IDiag  1:
 RMSU=  3.98D-05    CP:  9.98D-01  1.43D+00  7.28D-01  8.92D-01  1.09D+00
 E= -862.951951440049     Delta-E=       -0.000140284437 Rises=F Damp=F
 DIIS: error= 2.43D-04 at cycle   6 NSaved=   6.
 NSaved= 6 IEnMin= 6 EnMin= -862.951951440049     IErMin= 6 ErrMin= 2.43D-04
 ErrMax= 2.43D-04  0.00D+00 EMaxC= 1.00D-01 BMatC= 2.73D-05 BMatP= 8.65D-05
 IDIUse=3 WtCom= 9.98D-01 WtEn= 2.43D-03
 Coeff-Com:  0.318D-01-0.653D-01-0.687D-01-0.518D-01 0.407D+00 0.747D+00
 Coeff-En:   0.000D+00 0.000D+00 0.000D+00 0.000D+00 0.000D+00 0.100D+01
 Coeff:      0.317D-01-0.651D-01-0.686D-01-0.517D-01 0.406D+00 0.747D+00
 Gap=     0.252 Goal=   None    Shift=    0.000
 RMSDP=3.00D-05 MaxDP=1.13D-03 DE=-1.40D-04 OVMax= 5.04D-03

 Cycle   7  Pass 0  IDiag  1:
 RMSU=  1.97D-05    CP:  9.98D-01  1.43D+00  7.35D-01  9.30D-01  1.25D+00
                    CP:  1.05D+00
 E= -862.952000336056     Delta-E=       -0.000048896007 Rises=F Damp=F
 DIIS: error= 1.06D-04 at cycle   7 NSaved=   7.
 NSaved= 7 IEnMin= 7 EnMin= -862.952000336056     IErMin= 7 ErrMin= 1.06D-04
 ErrMax= 1.06D-04  0.00D+00 EMaxC= 1.00D-01 BMatC= 2.46D-06 BMatP= 2.73D-05
 IDIUse=3 WtCom= 9.99D-01 WtEn= 1.06D-03
 Coeff-Com:  0.798D-02-0.163D-01-0.196D-01-0.242D-01 0.240D-01 0.237D+00
 Coeff-Com:  0.791D+00
 Coeff-En:   0.000D+00 0.000D+00 0.000D+00 0.000D+00 0.000D+00 0.000D+00
 Coeff-En:   0.100D+01
 Coeff:      0.797D-02-0.163D-01-0.195D-01-0.242D-01 0.239D-01 0.237D+00
 Coeff:      0.791D+00
 Gap=     0.251 Goal=   None    Shift=    0.000
 RMSDP=1.05D-05 MaxDP=2.56D-04 DE=-4.89D-05 OVMax= 1.57D-03

 Cycle   8  Pass 0  IDiag  1:
 RMSU=  6.33D-06    CP:  9.98D-01  1.43D+00  7.36D-01  9.41D-01  1.29D+00
                    CP:  1.21D+00  1.05D+00
 E= -862.952005635512     Delta-E=       -0.000005299456 Rises=F Damp=F
 DIIS: error= 3.71D-05 at cycle   8 NSaved=   8.
 NSaved= 8 IEnMin= 8 EnMin= -862.952005635512     IErMin= 8 ErrMin= 3.71D-05
 ErrMax= 3.71D-05  0.00D+00 EMaxC= 1.00D-01 BMatC= 6.20D-07 BMatP= 2.46D-06
 IDIUse=1 WtCom= 1.00D+00 WtEn= 0.00D+00
 Coeff-Com: -0.320D-02 0.671D-02 0.603D-02 0.476D-04-0.890D-01-0.518D-01
 Coeff-Com:  0.352D+00 0.779D+00
 Coeff:     -0.320D-02 0.671D-02 0.603D-02 0.476D-04-0.890D-01-0.518D-01
 Coeff:      0.352D+00 0.779D+00
 Gap=     0.251 Goal=   None    Shift=    0.000
 RMSDP=5.92D-06 MaxDP=1.26D-04 DE=-5.30D-06 OVMax= 1.10D-03

 Initial convergence to 1.0D-05 achieved.  Increase integral accuracy.
 Cycle   9  Pass 1  IDiag  1:
 E= -862.951257830905     Delta-E=        0.000747804607 Rises=F Damp=F
 DIIS: error= 1.16D-04 at cycle   1 NSaved=   1.
 NSaved= 1 IEnMin= 1 EnMin= -862.951257830905     IErMin= 1 ErrMin= 1.16D-04
 ErrMax= 1.16D-04  0.00D+00 EMaxC= 1.00D-01 BMatC= 7.47D-06 BMatP= 7.47D-06
 IDIUse=3 WtCom= 9.99D-01 WtEn= 1.16D-03
 Coeff-Com:  0.100D+01
 Coeff-En:   0.100D+01
 Coeff:      0.100D+01
 Gap=     0.251 Goal=   None    Shift=    0.000
 RMSDP=5.92D-06 MaxDP=1.26D-04 DE= 7.48D-04 OVMax= 3.01D-04

 Cycle  10  Pass 1  IDiag  1:
 RMSU=  4.07D-05    CP:  1.00D+00
 E= -862.951263602255     Delta-E=       -0.000005771351 Rises=F Damp=F
 DIIS: error= 1.61D-05 at cycle   2 NSaved=   2.
 NSaved= 2 IEnMin= 2 EnMin= -862.951263602255     IErMin= 2 ErrMin= 1.61D-05
 ErrMax= 1.61D-05  0.00D+00 EMaxC= 1.00D-01 BMatC= 1.84D-07 BMatP= 7.47D-06
 IDIUse=1 WtCom= 1.00D+00 WtEn= 0.00D+00
 Coeff-Com: -0.349D-01 0.103D+01
 Coeff:     -0.349D-01 0.103D+01
 Gap=     0.251 Goal=   None    Shift=    0.000
 RMSDP=3.30D-06 MaxDP=9.58D-05 DE=-5.77D-06 OVMax= 2.89D-04

 Cycle  11  Pass 1  IDiag  1:
 RMSU=  2.59D-06    CP:  1.00D+00  1.05D+00
 E= -862.951263693308     Delta-E=       -0.000000091053 Rises=F Damp=F
 DIIS: error= 2.19D-05 at cycle   3 NSaved=   3.
 NSaved= 3 IEnMin= 3 EnMin= -862.951263693308     IErMin= 2 ErrMin= 1.61D-05
 ErrMax= 2.19D-05  0.00D+00 EMaxC= 1.00D-01 BMatC= 1.85D-07 BMatP= 1.84D-07
 IDIUse=1 WtCom= 1.00D+00 WtEn= 0.00D+00
 Coeff-Com: -0.391D-01 0.536D+00 0.503D+00
 Coeff:     -0.391D-01 0.536D+00 0.503D+00
 Gap=     0.251 Goal=   None    Shift=    0.000
 RMSDP=1.35D-06 MaxDP=5.14D-05 DE=-9.11D-08 OVMax= 8.67D-05

 Cycle  12  Pass 1  IDiag  1:
 RMSU=  1.06D-06    CP:  1.00D+00  1.05D+00  6.81D-01
 E= -862.951263856491     Delta-E=       -0.000000163183 Rises=F Damp=F
 DIIS: error= 3.18D-06 at cycle   4 NSaved=   4.
 NSaved= 4 IEnMin= 4 EnMin= -862.951263856491     IErMin= 4 ErrMin= 3.18D-06
 ErrMax= 3.18D-06  0.00D+00 EMaxC= 1.00D-01 BMatC= 5.52D-09 BMatP= 1.84D-07
 IDIUse=1 WtCom= 1.00D+00 WtEn= 0.00D+00
 Coeff-Com: -0.509D-02 0.671D-02 0.115D+00 0.883D+00
 Coeff:     -0.509D-02 0.671D-02 0.115D+00 0.883D+00
 Gap=     0.251 Goal=   None    Shift=    0.000
 RMSDP=4.61D-07 MaxDP=1.45D-05 DE=-1.63D-07 OVMax= 6.96D-05

 Cycle  13  Pass 1  IDiag  1:
 RMSU=  3.15D-07    CP:  1.00D+00  1.05D+00  8.02D-01  1.11D+00
 E= -862.951263866745     Delta-E=       -0.000000010254 Rises=F Damp=F
 DIIS: error= 1.94D-06 at cycle   5 NSaved=   5.
 NSaved= 5 IEnMin= 5 EnMin= -862.951263866745     IErMin= 5 ErrMin= 1.94D-06
 ErrMax= 1.94D-06  0.00D+00 EMaxC= 1.00D-01 BMatC= 1.79D-09 BMatP= 5.52D-09
 IDIUse=1 WtCom= 1.00D+00 WtEn= 0.00D+00
 Coeff-Com:  0.249D-02-0.617D-01-0.142D-01 0.407D+00 0.666D+00
 Coeff:      0.249D-02-0.617D-01-0.142D-01 0.407D+00 0.666D+00
 Gap=     0.251 Goal=   None    Shift=    0.000
 RMSDP=2.16D-07 MaxDP=6.87D-06 DE=-1.03D-08 OVMax= 3.06D-05

 Cycle  14  Pass 1  IDiag  1:
 RMSU=  1.52D-07    CP:  1.00D+00  1.05D+00  8.29D-01  1.24D+00  1.01D+00
 E= -862.951263869619     Delta-E=       -0.000000002874 Rises=F Damp=F
 DIIS: error= 8.74D-07 at cycle   6 NSaved=   6.
 NSaved= 6 IEnMin= 6 EnMin= -862.951263869619     IErMin= 6 ErrMin= 8.74D-07
 ErrMax= 8.74D-07  0.00D+00 EMaxC= 1.00D-01 BMatC= 2.75D-10 BMatP= 1.79D-09
 IDIUse=1 WtCom= 1.00D+00 WtEn= 0.00D+00
 Coeff-Com:  0.204D-02-0.249D-01-0.345D-01-0.316D-01 0.237D+00 0.851D+00
 Coeff:      0.204D-02-0.249D-01-0.345D-01-0.316D-01 0.237D+00 0.851D+00
 Gap=     0.251 Goal=   None    Shift=    0.000
 RMSDP=1.34D-07 MaxDP=3.62D-06 DE=-2.87D-09 OVMax= 2.21D-05

 Cycle  15  Pass 1  IDiag  1:
 RMSU=  6.11D-08    CP:  1.00D+00  1.05D+00  8.45D-01  1.31D+00  1.26D+00
                    CP:  1.17D+00
 E= -862.951263870394     Delta-E=       -0.000000000775 Rises=F Damp=F
 DIIS: error= 3.20D-07 at cycle   7 NSaved=   7.
 NSaved= 7 IEnMin= 7 EnMin= -862.951263870394     IErMin= 7 ErrMin= 3.20D-07
 ErrMax= 3.20D-07  0.00D+00 EMaxC= 1.00D-01 BMatC= 6.52D-11 BMatP= 2.75D-10
 IDIUse=1 WtCom= 1.00D+00 WtEn= 0.00D+00
 Coeff-Com:  0.390D-03 0.242D-02-0.133D-01-0.964D-01-0.392D-01 0.370D+00
 Coeff-Com:  0.776D+00
 Coeff:      0.390D-03 0.242D-02-0.133D-01-0.964D-01-0.392D-01 0.370D+00
 Coeff:      0.776D+00
 Gap=     0.251 Goal=   None    Shift=    0.000
 RMSDP=6.68D-08 MaxDP=1.34D-06 DE=-7.75D-10 OVMax= 1.24D-05

 Cycle  16  Pass 1  IDiag  1:
 RMSU=  2.85D-08    CP:  1.00D+00  1.05D+00  8.54D-01  1.34D+00  1.36D+00
                    CP:  1.41D+00  1.04D+00
 E= -862.951263870601     Delta-E=       -0.000000000207 Rises=F Damp=F
 DIIS: error= 2.37D-07 at cycle   8 NSaved=   8.
 NSaved= 8 IEnMin= 8 EnMin= -862.951263870601     IErMin= 8 ErrMin= 2.37D-07
 ErrMax= 2.37D-07  0.00D+00 EMaxC= 1.00D-01 BMatC= 8.96D-12 BMatP= 6.52D-11
 IDIUse=1 WtCom= 1.00D+00 WtEn= 0.00D+00
 Coeff-Com: -0.286D-03 0.554D-02 0.244D-02-0.198D-01-0.637D-01-0.722D-01
 Coeff-Com:  0.245D+00 0.903D+00
 Coeff:     -0.286D-03 0.554D-02 0.244D-02-0.198D-01-0.637D-01-0.722D-01
 Coeff:      0.245D+00 0.903D+00
 Gap=     0.251 Goal=   None    Shift=    0.000
 RMSDP=2.94D-08 MaxDP=5.06D-07 DE=-2.07D-10 OVMax= 5.00D-06

 Cycle  17  Pass 1  IDiag  1:
 RMSU=  9.94D-09    CP:  1.00D+00  1.05D+00  8.55D-01  1.35D+00  1.40D+00
                    CP:  1.51D+00  1.26D+00  1.10D+00
 E= -862.951263870632     Delta-E=       -0.000000000031 Rises=F Damp=F
 DIIS: error= 3.67D-08 at cycle   9 NSaved=   9.
 NSaved= 9 IEnMin= 9 EnMin= -862.951263870632     IErMin= 9 ErrMin= 3.67D-08
 ErrMax= 3.67D-08  0.00D+00 EMaxC= 1.00D-01 BMatC= 9.93D-13 BMatP= 8.96D-12
 IDIUse=1 WtCom= 1.00D+00 WtEn= 0.00D+00
 Coeff-Com: -0.145D-03 0.185D-02 0.203D-02 0.202D-02-0.206D-01-0.625D-01
 Coeff-Com:  0.126D-01 0.320D+00 0.745D+00
 Coeff:     -0.145D-03 0.185D-02 0.203D-02 0.202D-02-0.206D-01-0.625D-01
 Coeff:      0.126D-01 0.320D+00 0.745D+00
 Gap=     0.251 Goal=   None    Shift=    0.000
 RMSDP=7.21D-09 MaxDP=1.16D-07 DE=-3.09D-11 OVMax= 1.09D-06

 SCF Done:  E(RwB97XD) =  -862.951263871     A.U. after   17 cycles
            NFock= 17  Conv=0.72D-08     -V/T= 2.0093
 KE= 8.550136068785D+02 PE=-4.726627798869D+03 EE= 1.647915849735D+03
 Leave Link  502 at Tue Sep 26 17:47:42 2017, MaxMem=  1879048192 cpu:       245.8
 (Enter /share/apps/gaussian/g09_D01/g09/l801.exe)
 DoSCS=F DFT=T ScalE2(SS,OS)=  1.000000  1.000000
 ExpMin= 1.61D-01 ExpMax= 5.48D+03 ExpMxC= 8.25D+02 IAcc=3 IRadAn=         5 AccDes= 0.00D+00
 HarFok:  IExCor=  205 AccDes= 0.00D+00 IRadAn=         5 IDoV=-2 UseB2=F ITyADJ=14
 ICtDFT= 12500011 ScaDFX=  1.000000  1.000000  1.000000  1.000000
 Largest valence mixing into a core orbital is  7.28D-05
 Largest core mixing into a valence orbital is  1.52D-05
 Range of M.O.s used for correlation:    21   334
 NBasis=   334 NAE=    71 NBE=    71 NFC=    20 NFV=     0
 NROrb=    314 NOA=    51 NOB=    51 NVA=   263 NVB=   263
 Leave Link  801 at Tue Sep 26 17:47:43 2017, MaxMem=  1879048192 cpu:         1.0
 (Enter /share/apps/gaussian/g09_D01/g09/l914.exe)
 RHF ground state
 MDV=  1879048192 DFT=T DoStab=F Mixed=T DoRPA=T DoScal=F NonHer=T
 Would need an additional          7529500000 words for in-memory AO integral storage.
 Making orbital integer symmetry assigments:
     8 initial guesses have been made.
 Convergence on wavefunction:    0.001000000000000
 Davidson Disk Diagonalization:  ConvIn= 1.00D-03 SkipCon=T Conv= 1.00D-03.
 Max sub-space:   200 roots to seek:     8 dimension of matrix:        26826
 Iteration     1 Dimension     8 NMult     0 NNew      8
 CISAX will form     8 AO SS matrices at one time.
 NMat=     8 NSing=     8 JSym2X= 0.
 FoFJK:  IHMeth= 1 ICntrl=       0 DoSepK=T KAlg= 0 I1Cent=   0 FoldK=F
 IRaf=         1 NMat=  16 IRICut=       1 DoRegI=T DoRafI=F ISym2E= 0.
 FoFCou: FMM=F IPFlag=           0 FMFlag=      100000 FMFlg1=           0
         NFxFlg=           0 DoJE=F BraDBF=F KetDBF=F FulRan=T
         wScrn=  0.000000 ICntrl=     500 IOpCl=  0 I1Cent=           0 NGrid=           0
         NMat0=    8 NMatS0=      8 NMatT0=    0 NMatD0=    8 NMtDS0=    0 NMtDT0=    0
 Symmetry not used in FoFCou.
 New state      2 was old state      5
 Excitation Energies [eV] at current iteration:
 Root      1 :     4.146954511817622
 Root      2 :     4.360713966954227
 Root      3 :     4.823106679252009
 Root      4 :     5.303931713004372
 Root      5 :     5.951202664327830
 Root      6 :     6.220059717953410
 Root      7 :     6.427923185101877
 Root      8 :     6.613366805219476
 Iteration     2 Dimension    12 NMult     8 NNew      4
 CISAX will form     4 AO SS matrices at one time.
 NMat=     4 NSing=     4 JSym2X= 0.
 Root      1 not converged, maximum delta is    0.082291183937150
 Root      2 not converged, maximum delta is    0.128085648009746
 Excitation Energies [eV] at current iteration:
 Root      1 :     3.691639881304694   Change is   -0.455314630512927
 Root      2 :     3.926584259157904   Change is   -0.434129707796324
 Iteration     3 Dimension    16 NMult    12 NNew      4
 CISAX will form     4 AO SS matrices at one time.
 NMat=     4 NSing=     4 JSym2X= 0.
 Root      1 not converged, maximum delta is    0.018479076048133
 Root      2 not converged, maximum delta is    0.027715069813577
 Excitation Energies [eV] at current iteration:
 Root      1 :     3.655571508823852   Change is   -0.036068372480843
 Root      2 :     3.902078350998085   Change is   -0.024505908159818
 Iteration     4 Dimension    20 NMult    16 NNew      4
 CISAX will form     4 AO SS matrices at one time.
 NMat=     4 NSing=     4 JSym2X= 0.
 Root      1 not converged, maximum delta is    0.009726901688431
 Root      2 not converged, maximum delta is    0.005469062604583
 Excitation Energies [eV] at current iteration:
 Root      1 :     3.649814144001662   Change is   -0.005757364822190
 Root      2 :     3.900288671641459   Change is   -0.001789679356626
 Iteration     5 Dimension    24 NMult    20 NNew      4
 CISAX will form     4 AO SS matrices at one time.
 NMat=     4 NSing=     4 JSym2X= 0.
 Root      1 not converged, maximum delta is    0.004692086256847
 Root      2 not converged, maximum delta is    0.001772181030290
 Excitation Energies [eV] at current iteration:
 Root      1 :     3.648952291749786   Change is   -0.000861852251876
 Root      2 :     3.900135920810762   Change is   -0.000152750830698
 Iteration     6 Dimension    28 NMult    24 NNew      4
 CISAX will form     4 AO SS matrices at one time.
 NMat=     4 NSing=     4 JSym2X= 0.
 Root      1 not converged, maximum delta is    0.003618836669855
 Root      2 not converged, maximum delta is    0.001726378211186
 Excitation Energies [eV] at current iteration:
 Root      1 :     3.648758627232133   Change is   -0.000193664517652
 Root      2 :     3.900107893624010   Change is   -0.000028027186752
 Iteration     7 Dimension    32 NMult    28 NNew      4
 CISAX will form     4 AO SS matrices at one time.
 NMat=     4 NSing=     4 JSym2X= 0.
 Root      1 not converged, maximum delta is    0.001464286054417
 Root      2 not converged, maximum delta is    0.001157784898017
 Excitation Energies [eV] at current iteration:
 Root      1 :     3.648724898994954   Change is   -0.000033728237179
 Root      2 :     3.900101025255507   Change is   -0.000006868368502
 Iteration     8 Dimension    36 NMult    32 NNew      4
 CISAX will form     4 AO SS matrices at one time.
 NMat=     4 NSing=     4 JSym2X= 0.
 Root      1 has converged.
 Root      2 has converged.
 Excitation Energies [eV] at current iteration:
 Root      1 :     3.648718173344832   Change is   -0.000006725650123
 Root      2 :     3.900098838421534   Change is   -0.000002186833973
 Convergence achieved on expansion vectors.
 ***********************************************************************
 Excited states from <AA,BB:AA,BB> singles matrix:
 ***********************************************************************
 
 1PDM for each excited state written to RWF  633
 Ground to excited state transition densities written to RWF  633
 Ground to excited state transition electric dipole moments (Au):
       state          X           Y           Z        Dip. S.      Osc.
         1        -3.3760     -0.2968      1.2972     13.1683      1.1771
         2        -0.3518     -0.0296      0.1262      0.1406      0.0134
 Ground to excited state transition velocity dipole moments (Au):
       state          X           Y           Z        Dip. S.      Osc.
         1         0.4433      0.0366     -0.1738      0.2281      1.1339
         2         0.0482      0.0020     -0.0170      0.0026      0.0122
 Ground to excited state transition magnetic dipole moments (Au):
       state          X           Y           Z
         1         0.6413     -0.2423      1.5540
         2         0.0055     -0.3157     -0.3130
 Ground to excited state transition velocity quadrupole moments (Au):
       state          XX          YY          ZZ          XY          XZ          YZ
         1        -2.0866     -0.3219      0.2937     -2.3192     -0.0699      0.8018
         2        -0.2747     -0.0262      0.0388     -0.2547      0.0039      0.0802
 <0|del|b> * <b|rxdel|0> + <0|del|b> * <b|delr+rdel|0>
 Rotatory Strengths (R) in cgs (10**-40 erg-esu-cm/Gauss)
       state          XX          YY          ZZ    R(velocity)    E-M Angle
         1       333.9863    -87.8251   -217.7535      9.4692       89.62
         2        22.3111     12.6626    -10.4115      8.1874       77.37
 1/2[<0|r|b>*<b|rxdel|0> + (<0|rxdel|b>*<b|r|0>)*]
 Rotatory Strengths (R) in cgs (10**-40 erg-esu-cm/Gauss)
       state          XX          YY          ZZ     R(length)
         1      1531.0837    -50.8452  -1425.5390     18.2331
         2         1.3768     -6.6022     27.9380      7.5709
  1/2[<0|del|b>*<b|r|0> + (<0|r|b>*<b|del|0>)*] (Au)
       state          X           Y           Z        Dip. S.   Osc.(frdel)
         1        -1.4966     -0.0109     -0.2254      1.7329      1.1553
         2        -0.0170     -0.0001     -0.0022      0.0192      0.0128

 Excitation energies and oscillator strengths:
 
 Excited state symmetry could not be determined.
 Excited State   1:      Singlet-?Sym    3.6487 eV  339.80 nm  f=1.1771  <S**2>=0.000
      66 -> 72         0.10197
      70 -> 72        -0.17318
      70 -> 73         0.11686
      71 -> 72         0.64495
 This state for optimization and/or second-order correction.
 Total Energy, E(TD-HF/TD-KS) =  -862.817175939    
 Copying the excited state density for this state as the 1-particle RhoCI density.
 
 Excited state symmetry could not be determined.
 Excited State   2:      Singlet-?Sym    3.9001 eV  317.90 nm  f=0.0134  <S**2>=0.000
      68 -> 72         0.66159
      68 -> 73        -0.12263
      68 -> 76        -0.12564
 SavETr:  write IOETrn=   770 NScale= 10 NData=  16 NLR=1 NState=    2 LETran=      46.
 Leave Link  914 at Tue Sep 26 17:52:04 2017, MaxMem=  1879048192 cpu:       522.6
 (Enter /share/apps/gaussian/g09_D01/g09/l601.exe)
 Copying SCF densities to generalized density rwf, IOpCl= 0 IROHF=0.
 Saving Alpha spin NTOs for state    1 to file 10524.

 **********************************************************************

   Populations using transition density between ground and state  1.

 **********************************************************************

 Alpha  occ. eigenvalues --    0.00000   0.00000   0.00000   0.00000   0.00000
 Alpha  occ. eigenvalues --    0.00000   0.00000   0.00000   0.00000   0.00000
 Alpha  occ. eigenvalues --    0.00000   0.00000   0.00000   0.00000   0.00000
 Alpha  occ. eigenvalues --    0.00000   0.00000   0.00000   0.00000   0.00000
 Alpha  occ. eigenvalues --    0.00000   0.00000   0.00000   0.00000   0.00000
 Alpha  occ. eigenvalues --    0.00000   0.00001   0.00001   0.00001   0.00001
 Alpha  occ. eigenvalues --    0.00001   0.00001   0.00002   0.00002   0.00002
 Alpha  occ. eigenvalues --    0.00003   0.00003   0.00003   0.00003   0.00003
 Alpha  occ. eigenvalues --    0.00004   0.00005   0.00006   0.00006   0.00006
 Alpha  occ. eigenvalues --    0.00008   0.00010   0.00011   0.00011   0.00013
 Alpha  occ. eigenvalues --    0.00014   0.00015   0.00016   0.00016   0.00017
 Alpha  occ. eigenvalues --    0.00017   0.00018   0.00022   0.00022   0.00032
 Alpha  occ. eigenvalues --    0.00036   0.00044   0.00053   0.00083   0.00089
 Alpha  occ. eigenvalues --    0.00116   0.00137   0.00166   0.00542   0.04937
 Alpha  occ. eigenvalues --    0.94312
 Alpha virt. eigenvalues --    0.94312   0.04937   0.00542   0.00166   0.00137
 Alpha virt. eigenvalues --    0.00116   0.00089   0.00083   0.00053   0.00044
 Alpha virt. eigenvalues --    0.00036   0.00032   0.00022   0.00022   0.00018
 Alpha virt. eigenvalues --    0.00017   0.00017   0.00016   0.00016   0.00015
 Alpha virt. eigenvalues --    0.00014   0.00013   0.00011   0.00011   0.00010
 Alpha virt. eigenvalues --    0.00008   0.00006   0.00006   0.00006   0.00005
 Alpha virt. eigenvalues --    0.00004   0.00003   0.00003   0.00003   0.00003
 Alpha virt. eigenvalues --    0.00003   0.00002   0.00002   0.00002   0.00001
 Alpha virt. eigenvalues --    0.00001   0.00001   0.00001   0.00001   0.00001
 Alpha virt. eigenvalues --    0.00000   0.00000   0.00000   0.00000   0.00000
 Alpha virt. eigenvalues --    0.00000   0.00000   0.00000   0.00000   0.00000
 Alpha virt. eigenvalues --    0.00000   0.00000   0.00000   0.00000   0.00000
 Alpha virt. eigenvalues --    0.00000   0.00000   0.00000   0.00000   0.00000
 Alpha virt. eigenvalues --    0.00000   0.00000   0.00000   0.00000   0.00000
 Alpha virt. eigenvalues --    0.00000   0.00000   0.00000   0.00000   0.00000
 Alpha virt. eigenvalues --    0.00000   0.00000   0.00000   0.00000   0.00000
 Alpha virt. eigenvalues --    0.00000   0.00000   0.00000   0.00000   0.00000
 Alpha virt. eigenvalues --    0.00000   0.00000   0.00000   0.00000   0.00000
 Alpha virt. eigenvalues --    0.00000   0.00000   0.00000   0.00000   0.00000
 Alpha virt. eigenvalues --    0.00000   0.00000   0.00000   0.00000   0.00000
 Alpha virt. eigenvalues --    0.00000   0.00000   0.00000   0.00000   0.00000
 Alpha virt. eigenvalues --    0.00000   0.00000   0.00000   0.00000   0.00000
 Alpha virt. eigenvalues --    0.00000   0.00000   0.00000   0.00000   0.00000
 Alpha virt. eigenvalues --    0.00000   0.00000   0.00000   0.00000   0.00000
 Alpha virt. eigenvalues --    0.00000   0.00000   0.00000   0.00000   0.00000
 Alpha virt. eigenvalues --    0.00000   0.00000   0.00000   0.00000   0.00000
 Alpha virt. eigenvalues --    0.00000   0.00000   0.00000   0.00000   0.00000
 Alpha virt. eigenvalues --    0.00000   0.00000   0.00000   0.00000   0.00000
 Alpha virt. eigenvalues --    0.00000   0.00000   0.00000   0.00000   0.00000
 Alpha virt. eigenvalues --    0.00000   0.00000   0.00000   0.00000   0.00000
 Alpha virt. eigenvalues --    0.00000   0.00000   0.00000   0.00000   0.00000
 Alpha virt. eigenvalues --    0.00000   0.00000   0.00000   0.00000   0.00000
 Alpha virt. eigenvalues --    0.00000   0.00000   0.00000   0.00000   0.00000
 Alpha virt. eigenvalues --    0.00000   0.00000   0.00000   0.00000   0.00000
 Alpha virt. eigenvalues --    0.00000   0.00000   0.00000   0.00000   0.00000
 Alpha virt. eigenvalues --    0.00000   0.00000   0.00000   0.00000   0.00000
 Alpha virt. eigenvalues --    0.00000   0.00000   0.00000   0.00000   0.00000
 Alpha virt. eigenvalues --    0.00000   0.00000   0.00000   0.00000   0.00000
 Alpha virt. eigenvalues --    0.00000   0.00000   0.00000   0.00000   0.00000
 Alpha virt. eigenvalues --    0.00000   0.00000   0.00000   0.00000   0.00000
 Alpha virt. eigenvalues --    0.00000   0.00000   0.00000   0.00000   0.00000
 Alpha virt. eigenvalues --    0.00000   0.00000   0.00000   0.00000   0.00000
 Alpha virt. eigenvalues --    0.00000   0.00000   0.00000   0.00000   0.00000
 Alpha virt. eigenvalues --    0.00000   0.00000   0.00000   0.00000   0.00000
 Alpha virt. eigenvalues --    0.00000   0.00000   0.00000   0.00000   0.00000
 Alpha virt. eigenvalues --    0.00000   0.00000   0.00000   0.00000   0.00000
 Alpha virt. eigenvalues --    0.00000   0.00000   0.00000   0.00000   0.00000
 Alpha virt. eigenvalues --    0.00000   0.00000   0.00000   0.00000   0.00000
 Alpha virt. eigenvalues --    0.00000   0.00000   0.00000   0.00000   0.00000
 Alpha virt. eigenvalues --    0.00000   0.00000   0.00000   0.00000   0.00000
 Alpha virt. eigenvalues --    0.00000   0.00000   0.00000   0.00000   0.00000
 Alpha virt. eigenvalues --    0.00000   0.00000   0.00000   0.00000   0.00000
 Alpha virt. eigenvalues --    0.00000   0.00000   0.00000
          Condensed to atoms (all electrons):
               1          2          3          4          5          6
     1  C    0.015149   0.048880   0.033070  -0.048890  -0.006023   0.004495
     2  C    0.048880  -0.026377  -0.002684  -0.001713  -0.031513  -0.004598
     3  C    0.033070  -0.002684  -0.036273  -0.000069  -0.005485   0.000522
     4  N   -0.048890  -0.001713  -0.000069   0.034471   0.000898  -0.000621
     5  C   -0.006023  -0.031513  -0.005485   0.000898   0.053444  -0.006614
     6  H    0.004495  -0.004598   0.000522  -0.000621  -0.006614   0.024042
     7  C   -0.005899  -0.004635  -0.018776   0.000610   0.013521   0.000114
     8  H    0.004530   0.000358  -0.004937  -0.000296   0.000124  -0.000014
     9  C    0.000182  -0.003848   0.000634   0.040997   0.000002   0.000434
    10  C    0.000060   0.000578  -0.003579   0.038494  -0.000003   0.000022
    11  C   -0.002648   0.005761   0.007029   0.000070   0.049681   0.000323
    12  H    0.000110   0.000302   0.000068  -0.000013  -0.001674  -0.000622
    13  H   -0.000022   0.000073   0.000078  -0.000008  -0.000098   0.000001
    14  H    0.002060   0.001657   0.000005  -0.009948  -0.000082   0.000296
    15  H   -0.000107  -0.000009  -0.000009  -0.000562  -0.000001  -0.000071
    16  H    0.002072   0.001724   0.000009  -0.009674  -0.000100   0.000359
    17  H    0.001980   0.000033   0.001024  -0.009596  -0.000007   0.000000
    18  H   -0.000155  -0.000007  -0.000017  -0.000376   0.000000  -0.000001
    19  H    0.002025   0.000031   0.000958  -0.009444  -0.000007   0.000000
    20  C    0.000193   0.000907   0.000296  -0.000002  -0.013363  -0.000017
    21  C    0.000008  -0.000169  -0.000047   0.000000  -0.001807  -0.000001
    22  H    0.000002  -0.000001  -0.000004   0.000000  -0.000034   0.000000
    23  C    0.000000  -0.000001   0.000000   0.000000   0.000081   0.000000
    24  H    0.000002  -0.000130   0.000000   0.000000   0.000890  -0.000003
    25  C    0.000000   0.000000   0.000000   0.000000  -0.000002   0.000000
    26  O    0.000000   0.000000   0.000000   0.000000  -0.000004   0.000000
    27  C    0.000000   0.000000   0.000000   0.000000   0.000000   0.000000
    28  C    0.000000   0.000000   0.000000   0.000000   0.000000   0.000000
    29  H    0.000000   0.000000   0.000000   0.000000   0.000000   0.000000
    30  C    0.000000   0.000000   0.000000   0.000000   0.000000   0.000000
    31  O    0.000000   0.000000   0.000000   0.000000   0.000000   0.000000
    32  C    0.000000   0.000000   0.000000   0.000000   0.000000   0.000000
    33  H    0.000000   0.000000   0.000000   0.000000   0.000006   0.000000
    34  C    0.000000   0.000000   0.000000   0.000000   0.000000   0.000000
    35  H    0.000000   0.000000   0.000000   0.000000   0.000000   0.000000
    36  H    0.000000   0.000000   0.000000   0.000000   0.000000   0.000000
    37  H    0.000000   0.000000   0.000000   0.000000   0.000000   0.000000
               7          8          9         10         11         12
     1  C   -0.005899   0.004530   0.000182   0.000060  -0.002648   0.000110
     2  C   -0.004635   0.000358  -0.003848   0.000578   0.005761   0.000302
     3  C   -0.018776  -0.004937   0.000634  -0.003579   0.007029   0.000068
     4  N    0.000610  -0.000296   0.040997   0.038494   0.000070  -0.000013
     5  C    0.013521   0.000124   0.000002  -0.000003   0.049681  -0.001674
     6  H    0.000114  -0.000014   0.000434   0.000022   0.000323  -0.000622
     7  C    0.046603  -0.005995  -0.000006   0.000030   0.034204   0.000135
     8  H   -0.005995   0.016342   0.000023   0.000542   0.000211   0.000002
     9  C   -0.000006   0.000023  -0.048567  -0.004093   0.000003   0.000002
    10  C    0.000030   0.000542  -0.004093  -0.045889  -0.000002   0.000000
    11  C    0.034204   0.000211   0.000003  -0.000002  -0.103980  -0.008966
    12  H    0.000135   0.000002   0.000002   0.000000  -0.008966   0.059586
    13  H    0.000038  -0.000336   0.000000   0.000002  -0.006825  -0.000027
    14  H   -0.000005  -0.000001  -0.005857   0.000011   0.000000   0.000000
    15  H    0.000000   0.000000  -0.000142  -0.000956   0.000000   0.000000
    16  H   -0.000006   0.000000  -0.006700   0.000059  -0.000002   0.000000
    17  H   -0.000073   0.000427   0.000029  -0.005602  -0.000001   0.000000
    18  H   -0.000001  -0.000085  -0.000903   0.000130   0.000000   0.000000
    19  H   -0.000048   0.000290  -0.000028  -0.005365  -0.000001   0.000000
    20  C   -0.013752  -0.000010   0.000000   0.000000  -0.067335  -0.001886
    21  C    0.000210   0.000000   0.000000   0.000000   0.019311  -0.000675
    22  H   -0.000325  -0.000003   0.000000   0.000000   0.005325  -0.000071
    23  C    0.000013   0.000000   0.000000   0.000000   0.000013   0.000073
    24  H    0.000013   0.000000   0.000000   0.000000   0.001385   0.000163
    25  C    0.000000   0.000000   0.000000   0.000000  -0.000015  -0.000004
    26  O    0.000007   0.000000   0.000000   0.000000  -0.000292  -0.000001
    27  C    0.000000   0.000000   0.000000   0.000000   0.000000   0.000000
    28  C    0.000000   0.000000   0.000000   0.000000  -0.000002  -0.000002
    29  H    0.000000   0.000000   0.000000   0.000000   0.000000   0.000000
    30  C    0.000000   0.000000   0.000000   0.000000   0.000000   0.000000
    31  O    0.000000   0.000000   0.000000   0.000000   0.000000   0.000000
    32  C    0.000000   0.000000   0.000000   0.000000   0.000000   0.000000
    33  H    0.000000   0.000000   0.000000   0.000000  -0.000005  -0.000004
    34  C    0.000000   0.000000   0.000000   0.000000   0.000000   0.000000
    35  H    0.000000   0.000000   0.000000   0.000000   0.000000   0.000000
    36  H    0.000000   0.000000   0.000000   0.000000   0.000000   0.000000
    37  H    0.000000   0.000000   0.000000   0.000000   0.000000   0.000000
              13         14         15         16         17         18
     1  C   -0.000022   0.002060  -0.000107   0.002072   0.001980  -0.000155
     2  C    0.000073   0.001657  -0.000009   0.001724   0.000033  -0.000007
     3  C    0.000078   0.000005  -0.000009   0.000009   0.001024  -0.000017
     4  N   -0.000008  -0.009948  -0.000562  -0.009674  -0.009596  -0.000376
     5  C   -0.000098  -0.000082  -0.000001  -0.000100  -0.000007   0.000000
     6  H    0.000001   0.000296  -0.000071   0.000359   0.000000  -0.000001
     7  C    0.000038  -0.000005   0.000000  -0.000006  -0.000073  -0.000001
     8  H   -0.000336  -0.000001   0.000000   0.000000   0.000427  -0.000085
     9  C    0.000000  -0.005857  -0.000142  -0.006700   0.000029  -0.000903
    10  C    0.000002   0.000011  -0.000956   0.000059  -0.005602   0.000130
    11  C   -0.006825   0.000000   0.000000  -0.000002  -0.000001   0.000000
    12  H   -0.000027   0.000000   0.000000   0.000000   0.000000   0.000000
    13  H    0.036906   0.000000   0.000000   0.000000   0.000001   0.000000
    14  H    0.000000   0.065975  -0.002881  -0.015737  -0.000188   0.000010
    15  H    0.000000  -0.002881   0.029524  -0.002051   0.000056   0.000310
    16  H    0.000000  -0.015737  -0.002051   0.064868   0.000404   0.000034
    17  H    0.000001  -0.000188   0.000056   0.000404   0.063177  -0.002076
    18  H    0.000000   0.000010   0.000310   0.000034  -0.002076   0.027778
    19  H   -0.000001   0.000438  -0.000006  -0.000183  -0.014930  -0.002432
    20  C   -0.000489   0.000000   0.000000   0.000000   0.000000   0.000000
    21  C    0.000028   0.000000   0.000000   0.000000   0.000000   0.000000
    22  H    0.000645   0.000000   0.000000   0.000000   0.000000   0.000000
    23  C   -0.000001   0.000000   0.000000   0.000000   0.000000   0.000000
    24  H   -0.000003   0.000000   0.000000   0.000000   0.000000   0.000000
    25  C    0.000000   0.000000   0.000000   0.000000   0.000000   0.000000
    26  O   -0.000001   0.000000   0.000000   0.000000   0.000000   0.000000
    27  C    0.000000   0.000000   0.000000   0.000000   0.000000   0.000000
    28  C    0.000000   0.000000   0.000000   0.000000   0.000000   0.000000
    29  H    0.000000   0.000000   0.000000   0.000000   0.000000   0.000000
    30  C    0.000000   0.000000   0.000000   0.000000   0.000000   0.000000
    31  O    0.000000   0.000000   0.000000   0.000000   0.000000   0.000000
    32  C    0.000000   0.000000   0.000000   0.000000   0.000000   0.000000
    33  H    0.000000   0.000000   0.000000   0.000000   0.000000   0.000000
    34  C    0.000000   0.000000   0.000000   0.000000   0.000000   0.000000
    35  H    0.000000   0.000000   0.000000   0.000000   0.000000   0.000000
    36  H    0.000000   0.000000   0.000000   0.000000   0.000000   0.000000
    37  H    0.000000   0.000000   0.000000   0.000000   0.000000   0.000000
              19         20         21         22         23         24
     1  C    0.002025   0.000193   0.000008   0.000002   0.000000   0.000002
     2  C    0.000031   0.000907  -0.000169  -0.000001  -0.000001  -0.000130
     3  C    0.000958   0.000296  -0.000047  -0.000004   0.000000   0.000000
     4  N   -0.009444  -0.000002   0.000000   0.000000   0.000000   0.000000
     5  C   -0.000007  -0.013363  -0.001807  -0.000034   0.000081   0.000890
     6  H    0.000000  -0.000017  -0.000001   0.000000   0.000000  -0.000003
     7  C   -0.000048  -0.013752   0.000210  -0.000325   0.000013   0.000013
     8  H    0.000290  -0.000010   0.000000  -0.000003   0.000000   0.000000
     9  C   -0.000028   0.000000   0.000000   0.000000   0.000000   0.000000
    10  C   -0.005365   0.000000   0.000000   0.000000   0.000000   0.000000
    11  C   -0.000001  -0.067335   0.019311   0.005325   0.000013   0.001385
    12  H    0.000000  -0.001886  -0.000675  -0.000071   0.000073   0.000163
    13  H   -0.000001  -0.000489   0.000028   0.000645  -0.000001  -0.000003
    14  H    0.000438   0.000000   0.000000   0.000000   0.000000   0.000000
    15  H   -0.000006   0.000000   0.000000   0.000000   0.000000   0.000000
    16  H   -0.000183   0.000000   0.000000   0.000000   0.000000   0.000000
    17  H   -0.014930   0.000000   0.000000   0.000000   0.000000   0.000000
    18  H   -0.002432   0.000000   0.000000   0.000000   0.000000   0.000000
    19  H    0.063274   0.000000   0.000000   0.000000   0.000000   0.000000
    20  C    0.000000   0.078387   0.068900   0.011728  -0.010454   0.015946
    21  C    0.000000   0.068900  -0.110650  -0.007188  -0.078940  -0.003403
    22  H    0.000000   0.011728  -0.007188   0.005330  -0.000589  -0.000406
    23  C    0.000000  -0.010454  -0.078940  -0.000589   0.038490  -0.009114
    24  H    0.000000   0.015946  -0.003403  -0.000406  -0.009114  -0.045843
    25  C    0.000000  -0.001624   0.003079  -0.000177   0.052563   0.001859
    26  O    0.000000  -0.000492   0.018004  -0.005285  -0.004546  -0.000269
    27  C    0.000000  -0.000005  -0.000020   0.000002   0.006589   0.000028
    28  C    0.000000   0.000237   0.003275   0.000007   0.000808  -0.000349
    29  H    0.000000   0.000004  -0.000157   0.000024  -0.000901   0.000004
    30  C    0.000000   0.000000   0.000020   0.000000   0.000046  -0.000003
    31  O    0.000000  -0.000001   0.000002  -0.000003  -0.001001   0.000000
    32  C    0.000000   0.000005   0.000044   0.000000  -0.000409  -0.000041
    33  H    0.000000   0.000014   0.000365   0.000003   0.000116   0.000245
    34  C    0.000000   0.000000  -0.000010   0.000000  -0.000096   0.000001
    35  H    0.000000   0.000000   0.000000   0.000000   0.000010   0.000000
    36  H    0.000000   0.000000   0.000000   0.000000   0.000004   0.000002
    37  H    0.000000   0.000000   0.000000   0.000000   0.000000   0.000000
              25         26         27         28         29         30
     1  C    0.000000   0.000000   0.000000   0.000000   0.000000   0.000000
     2  C    0.000000   0.000000   0.000000   0.000000   0.000000   0.000000
     3  C    0.000000   0.000000   0.000000   0.000000   0.000000   0.000000
     4  N    0.000000   0.000000   0.000000   0.000000   0.000000   0.000000
     5  C   -0.000002  -0.000004   0.000000   0.000000   0.000000   0.000000
     6  H    0.000000   0.000000   0.000000   0.000000   0.000000   0.000000
     7  C    0.000000   0.000007   0.000000   0.000000   0.000000   0.000000
     8  H    0.000000   0.000000   0.000000   0.000000   0.000000   0.000000
     9  C    0.000000   0.000000   0.000000   0.000000   0.000000   0.000000
    10  C    0.000000   0.000000   0.000000   0.000000   0.000000   0.000000
    11  C   -0.000015  -0.000292   0.000000  -0.000002   0.000000   0.000000
    12  H   -0.000004  -0.000001   0.000000  -0.000002   0.000000   0.000000
    13  H    0.000000  -0.000001   0.000000   0.000000   0.000000   0.000000
    14  H    0.000000   0.000000   0.000000   0.000000   0.000000   0.000000
    15  H    0.000000   0.000000   0.000000   0.000000   0.000000   0.000000
    16  H    0.000000   0.000000   0.000000   0.000000   0.000000   0.000000
    17  H    0.000000   0.000000   0.000000   0.000000   0.000000   0.000000
    18  H    0.000000   0.000000   0.000000   0.000000   0.000000   0.000000
    19  H    0.000000   0.000000   0.000000   0.000000   0.000000   0.000000
    20  C   -0.001624  -0.000492  -0.000005   0.000237   0.000004   0.000000
    21  C    0.003079   0.018004  -0.000020   0.003275  -0.000157   0.000020
    22  H   -0.000177  -0.005285   0.000002   0.000007   0.000024   0.000000
    23  C    0.052563  -0.004546   0.006589   0.000808  -0.000901   0.000046
    24  H    0.001859  -0.000269   0.000028  -0.000349   0.000004  -0.000003
    25  C    0.013929  -0.003328  -0.000749  -0.035685   0.000793  -0.002913
    26  O   -0.003328  -0.051287  -0.002226  -0.000172   0.001066  -0.000033
    27  C   -0.000749  -0.002226  -0.020796  -0.003527   0.001955  -0.032746
    28  C   -0.035685  -0.000172  -0.003527  -0.016592   0.000056  -0.000037
    29  H    0.000793   0.001066   0.001955   0.000056  -0.011306  -0.000140
    30  C   -0.002913  -0.000033  -0.032746  -0.000037  -0.000140  -0.003688
    31  O    0.000329   0.003255   0.015929   0.000008  -0.004559   0.002561
    32  C   -0.002173  -0.000001   0.002619   0.036946  -0.000001   0.000755
    33  H    0.000059   0.000003  -0.000060   0.003247   0.000000  -0.000037
    34  C    0.003348   0.000004   0.002493   0.000713   0.000009   0.021994
    35  H   -0.000519   0.000000   0.000108  -0.000070   0.000009   0.002643
    36  H   -0.000263   0.000000  -0.000036   0.006083   0.000000  -0.000112
    37  H   -0.000019   0.000000  -0.000295  -0.000325   0.000000   0.002354
              31         32         33         34         35         36
     1  C    0.000000   0.000000   0.000000   0.000000   0.000000   0.000000
     2  C    0.000000   0.000000   0.000000   0.000000   0.000000   0.000000
     3  C    0.000000   0.000000   0.000000   0.000000   0.000000   0.000000
     4  N    0.000000   0.000000   0.000000   0.000000   0.000000   0.000000
     5  C    0.000000   0.000000   0.000006   0.000000   0.000000   0.000000
     6  H    0.000000   0.000000   0.000000   0.000000   0.000000   0.000000
     7  C    0.000000   0.000000   0.000000   0.000000   0.000000   0.000000
     8  H    0.000000   0.000000   0.000000   0.000000   0.000000   0.000000
     9  C    0.000000   0.000000   0.000000   0.000000   0.000000   0.000000
    10  C    0.000000   0.000000   0.000000   0.000000   0.000000   0.000000
    11  C    0.000000   0.000000  -0.000005   0.000000   0.000000   0.000000
    12  H    0.000000   0.000000  -0.000004   0.000000   0.000000   0.000000
    13  H    0.000000   0.000000   0.000000   0.000000   0.000000   0.000000
    14  H    0.000000   0.000000   0.000000   0.000000   0.000000   0.000000
    15  H    0.000000   0.000000   0.000000   0.000000   0.000000   0.000000
    16  H    0.000000   0.000000   0.000000   0.000000   0.000000   0.000000
    17  H    0.000000   0.000000   0.000000   0.000000   0.000000   0.000000
    18  H    0.000000   0.000000   0.000000   0.000000   0.000000   0.000000
    19  H    0.000000   0.000000   0.000000   0.000000   0.000000   0.000000
    20  C   -0.000001   0.000005   0.000014   0.000000   0.000000   0.000000
    21  C    0.000002   0.000044   0.000365  -0.000010   0.000000   0.000000
    22  H   -0.000003   0.000000   0.000003   0.000000   0.000000   0.000000
    23  C   -0.001001  -0.000409   0.000116  -0.000096   0.000010   0.000004
    24  H    0.000000  -0.000041   0.000245   0.000001   0.000000   0.000002
    25  C    0.000329  -0.002173   0.000059   0.003348  -0.000519  -0.000263
    26  O    0.003255  -0.000001   0.000003   0.000004   0.000000   0.000000
    27  C    0.015929   0.002619  -0.000060   0.002493   0.000108  -0.000036
    28  C    0.000008   0.036946   0.003247   0.000713  -0.000070   0.006083
    29  H   -0.004559  -0.000001   0.000000   0.000009   0.000009   0.000000
    30  C    0.002561   0.000755  -0.000037   0.021994   0.002643  -0.000112
    31  O   -0.056826  -0.000058   0.000004  -0.000259  -0.000270   0.000000
    32  C   -0.000058  -0.001164   0.005118  -0.042398  -0.000422   0.002054
    33  H    0.000004   0.005118  -0.031916  -0.000143  -0.000002   0.000324
    34  C   -0.000259  -0.042398  -0.000143  -0.010566   0.004404  -0.000622
    35  H   -0.000270  -0.000422  -0.000002   0.004404  -0.034296   0.000015
    36  H    0.000000   0.002054   0.000324  -0.000622   0.000015  -0.033727
    37  H    0.000006   0.002867   0.000020   0.001200   0.000582   0.000520
              37
     1  C    0.000000
     2  C    0.000000
     3  C    0.000000
     4  N    0.000000
     5  C    0.000000
     6  H    0.000000
     7  C    0.000000
     8  H    0.000000
     9  C    0.000000
    10  C    0.000000
    11  C    0.000000
    12  H    0.000000
    13  H    0.000000
    14  H    0.000000
    15  H    0.000000
    16  H    0.000000
    17  H    0.000000
    18  H    0.000000
    19  H    0.000000
    20  C    0.000000
    21  C    0.000000
    22  H    0.000000
    23  C    0.000000
    24  H    0.000000
    25  C   -0.000019
    26  O    0.000000
    27  C   -0.000295
    28  C   -0.000325
    29  H    0.000000
    30  C    0.002354
    31  O    0.000006
    32  C    0.002867
    33  H    0.000020
    34  C    0.001200
    35  H    0.000582
    36  H    0.000520
    37  H   -0.038532
 Mulliken charges:
               1
     1  C    5.948922
     2  C    6.015381
     3  C    6.028186
     4  N    6.975672
     5  C    5.948170
     6  H    0.981953
     7  C    5.954024
     8  H    0.988829
     9  C    6.027839
    10  C    6.025561
    11  C    6.066757
    12  H    0.953505
    13  H    0.970038
    14  H    0.964245
    15  H    0.976903
    16  H    0.964924
    17  H    0.965341
    18  H    0.977789
    19  H    0.965429
    20  C    5.932815
    21  C    6.089821
    22  H    0.991020
    23  C    6.007244
    24  H    1.039025
    25  C    5.971513
    26  O    8.045598
    27  C    6.030737
    28  C    6.005382
    29  H    1.013142
    30  C    6.009336
    31  O    8.040882
    32  C    5.996258
    33  H    1.022644
    34  C    6.019928
    35  H    1.027810
    36  H    1.025756
    37  H    1.031622
 Sum of Mulliken charges = 142.00000
 Mulliken charges with hydrogens summed into heavy atoms:
               1
     1  C    5.948922
     2  C    6.997334
     3  C    7.017016
     4  N    6.975672
     5  C    6.901674
     7  C    6.924061
     9  C    8.933911
    10  C    8.934121
    11  C    6.066757
    20  C    6.923835
    21  C    7.128846
    23  C    6.007244
    25  C    5.971513
    26  O    8.045598
    27  C    6.030737
    28  C    7.028026
    30  C    7.037147
    31  O    9.054024
    32  C    7.022014
    34  C    7.051550
 Electronic spatial extent (au):  <R**2>=            -22.9078
 Charge=              0.0000 electrons
 Dipole moment (field-independent basis, Debye):
    X=            -12.1353    Y=             -1.0668    Z=              4.6629  Tot=             13.0440
 Quadrupole moment (field-independent basis, Debye-Ang):
   XX=             29.8874   YY=              5.1440   ZZ=             -4.2197
   XY=             33.6599   XZ=              1.3685   YZ=            -11.2667
 Traceless Quadrupole moment (field-independent basis, Debye-Ang):
   XX=             19.6168   YY=             -5.1265   ZZ=            -14.4903
   XY=             33.6599   XZ=              1.3685   YZ=            -11.2667
 Octapole moment (field-independent basis, Debye-Ang**2):
  XXX=           -386.7724  YYY=            -25.6488  ZZZ=             45.2008  XYY=           -118.3500
  XXY=           -119.9011  XXZ=             91.1689  XZZ=            -60.0285  YZZ=             12.6728
  YYZ=             33.5141  XYZ=             -5.8638
 Hexadecapole moment (field-independent basis, Debye-Ang**3):
 XXXX=           1764.7846 YYYY=            128.2158 ZZZZ=            -79.7544 XXXY=           1219.5522
 XXXZ=           -118.2126 YYYX=            468.2412 YYYZ=           -111.8369 ZZZX=             40.5354
 ZZZY=           -115.7919 XXYY=            492.0606 XXZZ=             34.0370 YYZZ=            -46.2051
 XXYZ=           -207.5876 YYXZ=             32.1589 ZZXY=            150.2218
 N-N= 1.360747078384D+03 E-N= 3.472094699026D-01  KE= 3.970083480334D-03
 Leave Link  601 at Tue Sep 26 17:52:05 2017, MaxMem=  1879048192 cpu:         0.4
 (Enter /share/apps/gaussian/g09_D01/g09/l9999.exe)
 1\1\GINC-NXN32\SP\RwB97XD TD-FC\6-31G(d)\C17H17N1O2\BTX008\26-Sep-2017
 \0\\#p wb97xd 6-31G* nosymm td=(nstates=2) density=(Transition=1) pop=
 SaveNTO\\Title\\0,1\C,0,2.581379,-2.105893,-1.790351\C,0,1.469589,-2.9
 25706,-2.114778\C,0,2.418297,-1.172891,-0.739484\N,0,3.760702,-2.22074
 ,-2.463536\C,0,0.275622,-2.797215,-1.441929\H,0,1.543808,-3.659152,-2.
 906877\C,0,1.213161,-1.068453,-0.076918\H,0,3.239008,-0.532688,-0.4407
 57\C,0,3.889903,-3.191034,-3.531233\C,0,4.884294,-1.370986,-2.116734\C
 ,0,0.103869,-1.867639,-0.400177\H,0,-0.550023,-3.437858,-1.738482\H,0,
 1.11437,-0.338494,0.721184\H,0,3.768271,-4.218275,-3.164267\H,0,4.8784
 99,-3.104711,-3.978679\H,0,3.15148,-3.019964,-4.322237\H,0,4.641213,-0
 .309097,-2.246088\H,0,5.725497,-1.605799,-2.769569\H,0,5.206196,-1.527
 935,-1.081389\C,0,-1.117404,-1.732539,0.361203\C,0,-2.276353,-2.409923
 ,0.1825\H,0,-1.091198,-1.015275,1.182031\C,0,-3.398076,-2.21331,1.0909
 16\H,0,-2.379263,-3.124101,-0.624627\C,0,-4.70039,-2.871687,0.825503\O
 ,0,-3.265917,-1.494962,2.108429\C,0,-5.76572,-2.700323,1.744545\C,0,-4
 .941727,-3.655942,-0.318788\H,0,-4.711652,-1.603647,2.83003\C,0,-7.013
 689,-3.286127,1.498915\O,0,-5.627792,-1.982401,2.870442\C,0,-6.169035,
 -4.248695,-0.546866\H,0,-4.157788,-3.806279,-1.050026\C,0,-7.211084,-4
 .051961,0.365389\H,0,-7.815385,-3.104576,2.205589\H,0,-6.322494,-4.844
 558,-1.438454\H,0,-8.188118,-4.487504,0.178763\\Version=ES64L-G09RevD.
 01\HF=-862.9512639\RMSD=7.206e-09\PG=C01 [X(C17H17N1O2)]\\@


 YOU CANNOT THROW TO THE GROUND THE LETTERS OF
 THE GREEK ALPHABET AND PICK UP THE ILIAD.
        - RUFUS CHOATE, 1799-1859
 Job cpu time:       0 days  0 hours 12 minutes 54.8 seconds.
 File lengths (MBytes):  RWF=    148 Int=      0 D2E=      0 Chk=     14 Scr=      1
 Normal termination of Gaussian 09 at Tue Sep 26 17:52:05 2017.
