 Entering Gaussian System, Link 0=g09
 Input=2hc_1_rel-mega_dimer_0_mon-1.com
 Output=2hc_1_rel-mega_dimer_0_mon-1.log
 Initial command:
 /share/apps/gaussian/g09_D01/g09/l1.exe "/tmp/385488.1.all.q/Gau-24393.inp" -scrdir="/tmp/385488.1.all.q/"
 Default is to use a total of   4 processors:
                                4 via shared-memory
                                1 via Linda
 Entering Link 1 = /share/apps/gaussian/g09_D01/g09/l1.exe PID=     24394.
  
 Copyright (c) 1988,1990,1992,1993,1995,1998,2003,2009,2013,
            Gaussian, Inc.  All Rights Reserved.
  
 This is part of the Gaussian(R) 09 program.  It is based on
 the Gaussian(R) 03 system (copyright 2003, Gaussian, Inc.),
 the Gaussian(R) 98 system (copyright 1998, Gaussian, Inc.),
 the Gaussian(R) 94 system (copyright 1995, Gaussian, Inc.),
 the Gaussian 92(TM) system (copyright 1992, Gaussian, Inc.),
 the Gaussian 90(TM) system (copyright 1990, Gaussian, Inc.),
 the Gaussian 88(TM) system (copyright 1988, Gaussian, Inc.),
 the Gaussian 86(TM) system (copyright 1986, Carnegie Mellon
 University), and the Gaussian 82(TM) system (copyright 1983,
 Carnegie Mellon University). Gaussian is a federally registered
 trademark of Gaussian, Inc.
  
 This software contains proprietary and confidential information,
 including trade secrets, belonging to Gaussian, Inc.
  
 This software is provided under written license and may be
 used, copied, transmitted, or stored only in accord with that
 written license.
  
 The following legend is applicable only to US Government
 contracts under FAR:
  
                    RESTRICTED RIGHTS LEGEND
  
 Use, reproduction and disclosure by the US Government is
 subject to restrictions as set forth in subparagraphs (a)
 and (c) of the Commercial Computer Software - Restricted
 Rights clause in FAR 52.227-19.
  
 Gaussian, Inc.
 340 Quinnipiac St., Bldg. 40, Wallingford CT 06492
  
  
 ---------------------------------------------------------------
 Warning -- This program may not be used in any manner that
 competes with the business of Gaussian, Inc. or will provide
 assistance to any competitor of Gaussian, Inc.  The licensee
 of this program is prohibited from giving any competitor of
 Gaussian, Inc. access to this program.  By using this program,
 the user acknowledges that Gaussian, Inc. is engaged in the
 business of creating and licensing software in the field of
 computational chemistry and represents and warrants to the
 licensee that it is not a competitor of Gaussian, Inc. and that
 it will not use this program in any manner prohibited above.
 ---------------------------------------------------------------
  

 Cite this work as:
 Gaussian 09, Revision D.01,
 M. J. Frisch, G. W. Trucks, H. B. Schlegel, G. E. Scuseria, 
 M. A. Robb, J. R. Cheeseman, G. Scalmani, V. Barone, B. Mennucci, 
 G. A. Petersson, H. Nakatsuji, M. Caricato, X. Li, H. P. Hratchian, 
 A. F. Izmaylov, J. Bloino, G. Zheng, J. L. Sonnenberg, M. Hada, 
 M. Ehara, K. Toyota, R. Fukuda, J. Hasegawa, M. Ishida, T. Nakajima, 
 Y. Honda, O. Kitao, H. Nakai, T. Vreven, J. A. Montgomery, Jr., 
 J. E. Peralta, F. Ogliaro, M. Bearpark, J. J. Heyd, E. Brothers, 
 K. N. Kudin, V. N. Staroverov, T. Keith, R. Kobayashi, J. Normand, 
 K. Raghavachari, A. Rendell, J. C. Burant, S. S. Iyengar, J. Tomasi, 
 M. Cossi, N. Rega, J. M. Millam, M. Klene, J. E. Knox, J. B. Cross, 
 V. Bakken, C. Adamo, J. Jaramillo, R. Gomperts, R. E. Stratmann, 
 O. Yazyev, A. J. Austin, R. Cammi, C. Pomelli, J. W. Ochterski, 
 R. L. Martin, K. Morokuma, V. G. Zakrzewski, G. A. Voth, 
 P. Salvador, J. J. Dannenberg, S. Dapprich, A. D. Daniels, 
 O. Farkas, J. B. Foresman, J. V. Ortiz, J. Cioslowski, 
 and D. J. Fox, Gaussian, Inc., Wallingford CT, 2013.
 
 ******************************************
 Gaussian 09:  ES64L-G09RevD.01 24-Apr-2013
                 9-Aug-2018 
 ******************************************
 %chk=2hc_1_rel-mega_dimer_0_mon-1.chk
 %nproc=2
 Will use up to    2 processors via shared memory.
 %mem=14GB
 ----------------------------------------------------------------------
 #p wb97xd 6-311++G** td=(nstates=1) nosymm Pop=NTO Density=(Transition
 =1)
 ----------------------------------------------------------------------
 1/38=1/1;
 2/12=2,15=1,17=6,18=5,40=1/2;
 3/5=4,6=6,7=1111,11=9,16=1,25=1,30=1,74=-58/1,2,8,3;
 4//1;
 5/5=2,38=5/2;
 8/6=1,10=2,108=1/1;
 9/41=1,42=1,70=2/14;
 6/7=2,8=2,9=2,10=2,29=1,89=1/1;
 99/5=1,9=1/99;
 Leave Link    1 at Thu Aug  9 19:14:33 2018, MaxMem=  1879048192 cpu:         0.1
 (Enter /share/apps/gaussian/g09_D01/g09/l101.exe)
 -----
 Title
 -----
 Symbolic Z-matrix:
 Charge =  0 Multiplicity = 1
 C                    -7.19644  -6.8405    4.50546 
 C                    -8.44931  -7.42293   4.2561 
 C                    -6.11603  -7.04369   3.59483 
 O                    -7.03904  -6.08673   5.6112 
 C                    -8.64194  -8.21945   3.13706 
 H                    -9.25731  -7.21587   4.95777 
 C                    -6.35306  -7.86612   2.473 
 C                    -4.82425  -6.38093   3.86262 
 H                    -6.04768  -5.75609   5.53026 
 C                    -7.5888   -8.45099   2.24194 
 H                    -9.61958  -8.66541   2.9473 
 H                    -5.55265  -8.06317   1.76161 
 C                    -3.70418  -6.55496   2.97634 
 O                    -4.72679  -5.64097   4.90867 
 H                    -7.73762  -9.08887   1.37118 
 C                    -2.5213   -5.88807   3.16445 
 H                    -3.81017  -7.24232   2.1395 
 C                    -1.3206   -6.0145    2.39922 
 H                    -2.47843  -5.19305   4.01001 
 C                    -1.14661  -6.94948   1.34859 
 C                    -0.20216  -5.21023   2.72529 
 H                    -1.97111  -7.6028    1.06047 
 C                     0.0456   -7.07236   0.67304 
 C                     0.99793  -5.31005   2.05567 
 H                    -0.29953  -4.49271   3.54133 
 C                     1.16356  -6.24745   0.99906 
 H                     0.12129  -7.80971  -0.12188 
 H                     1.8261   -4.67311   2.35623 
 N                     2.33745  -6.35184   0.32458 
 C                     2.48278  -7.33387  -0.73861 
 C                     3.45104  -5.46741   0.63829 
 H                     2.29016  -8.35159  -0.36524 
 H                     3.50245  -7.29372  -1.13259 
 H                     1.7832   -7.13262  -1.56346 
 H                     3.15029  -4.41243   0.54965 
 H                     4.26893  -5.65856  -0.06324 
 H                     3.81896  -5.63608   1.66218 
 
 NAtoms=     37 NQM=       37 NQMF=       0 NMMI=      0 NMMIF=      0
                NMic=       0 NMicF=      0.
                    Isotopes and Nuclear Properties:
 (Nuclear quadrupole moments (NQMom) in fm**2, nuclear magnetic moments (NMagM)
  in nuclear magnetons)

  Atom         1           2           3           4           5           6           7           8           9          10
 IAtWgt=          12          12          12          16          12           1          12          12           1          12
 AtmWgt=  12.0000000  12.0000000  12.0000000  15.9949146  12.0000000   1.0078250  12.0000000  12.0000000   1.0078250  12.0000000
 NucSpn=           0           0           0           0           0           1           0           0           1           0
 AtZEff=   0.0000000   0.0000000   0.0000000   0.0000000   0.0000000   0.0000000   0.0000000   0.0000000   0.0000000   0.0000000
 NQMom=    0.0000000   0.0000000   0.0000000   0.0000000   0.0000000   0.0000000   0.0000000   0.0000000   0.0000000   0.0000000
 NMagM=    0.0000000   0.0000000   0.0000000   0.0000000   0.0000000   2.7928460   0.0000000   0.0000000   2.7928460   0.0000000
 AtZNuc=   6.0000000   6.0000000   6.0000000   8.0000000   6.0000000   1.0000000   6.0000000   6.0000000   1.0000000   6.0000000

  Atom        11          12          13          14          15          16          17          18          19          20
 IAtWgt=           1           1          12          16           1          12           1          12           1          12
 AtmWgt=   1.0078250   1.0078250  12.0000000  15.9949146   1.0078250  12.0000000   1.0078250  12.0000000   1.0078250  12.0000000
 NucSpn=           1           1           0           0           1           0           1           0           1           0
 AtZEff=   0.0000000   0.0000000   0.0000000   0.0000000   0.0000000   0.0000000   0.0000000   0.0000000   0.0000000   0.0000000
 NQMom=    0.0000000   0.0000000   0.0000000   0.0000000   0.0000000   0.0000000   0.0000000   0.0000000   0.0000000   0.0000000
 NMagM=    2.7928460   2.7928460   0.0000000   0.0000000   2.7928460   0.0000000   2.7928460   0.0000000   2.7928460   0.0000000
 AtZNuc=   1.0000000   1.0000000   6.0000000   8.0000000   1.0000000   6.0000000   1.0000000   6.0000000   1.0000000   6.0000000

  Atom        21          22          23          24          25          26          27          28          29          30
 IAtWgt=          12           1          12          12           1          12           1           1          14          12
 AtmWgt=  12.0000000   1.0078250  12.0000000  12.0000000   1.0078250  12.0000000   1.0078250   1.0078250  14.0030740  12.0000000
 NucSpn=           0           1           0           0           1           0           1           1           2           0
 AtZEff=   0.0000000   0.0000000   0.0000000   0.0000000   0.0000000   0.0000000   0.0000000   0.0000000   0.0000000   0.0000000
 NQMom=    0.0000000   0.0000000   0.0000000   0.0000000   0.0000000   0.0000000   0.0000000   0.0000000   2.0440000   0.0000000
 NMagM=    0.0000000   2.7928460   0.0000000   0.0000000   2.7928460   0.0000000   2.7928460   2.7928460   0.4037610   0.0000000
 AtZNuc=   6.0000000   1.0000000   6.0000000   6.0000000   1.0000000   6.0000000   1.0000000   1.0000000   7.0000000   6.0000000

  Atom        31          32          33          34          35          36          37
 IAtWgt=          12           1           1           1           1           1           1
 AtmWgt=  12.0000000   1.0078250   1.0078250   1.0078250   1.0078250   1.0078250   1.0078250
 NucSpn=           0           1           1           1           1           1           1
 AtZEff=   0.0000000   0.0000000   0.0000000   0.0000000   0.0000000   0.0000000   0.0000000
 NQMom=    0.0000000   0.0000000   0.0000000   0.0000000   0.0000000   0.0000000   0.0000000
 NMagM=    0.0000000   2.7928460   2.7928460   2.7928460   2.7928460   2.7928460   2.7928460
 AtZNuc=   6.0000000   1.0000000   1.0000000   1.0000000   1.0000000   1.0000000   1.0000000
 Leave Link  101 at Thu Aug  9 19:14:33 2018, MaxMem=  1879048192 cpu:         0.2
 (Enter /share/apps/gaussian/g09_D01/g09/l202.exe)
                          Input orientation:                          
 ---------------------------------------------------------------------
 Center     Atomic      Atomic             Coordinates (Angstroms)
 Number     Number       Type             X           Y           Z
 ---------------------------------------------------------------------
      1          6           0       -7.196442   -6.840499    4.505462
      2          6           0       -8.449309   -7.422935    4.256097
      3          6           0       -6.116034   -7.043692    3.594826
      4          8           0       -7.039043   -6.086733    5.611203
      5          6           0       -8.641938   -8.219449    3.137063
      6          1           0       -9.257309   -7.215866    4.957770
      7          6           0       -6.353060   -7.866116    2.472996
      8          6           0       -4.824246   -6.380928    3.862622
      9          1           0       -6.047680   -5.756085    5.530263
     10          6           0       -7.588796   -8.450990    2.241936
     11          1           0       -9.619575   -8.665408    2.947296
     12          1           0       -5.552651   -8.063173    1.761606
     13          6           0       -3.704178   -6.554956    2.976342
     14          8           0       -4.726790   -5.640966    4.908668
     15          1           0       -7.737618   -9.088866    1.371175
     16          6           0       -2.521300   -5.888071    3.164452
     17          1           0       -3.810174   -7.242315    2.139497
     18          6           0       -1.320601   -6.014497    2.399224
     19          1           0       -2.478430   -5.193048    4.010013
     20          6           0       -1.146607   -6.949476    1.348586
     21          6           0       -0.202155   -5.210226    2.725294
     22          1           0       -1.971105   -7.602804    1.060473
     23          6           0        0.045604   -7.072357    0.673042
     24          6           0        0.997930   -5.310047    2.055673
     25          1           0       -0.299533   -4.492713    3.541330
     26          6           0        1.163557   -6.247449    0.999056
     27          1           0        0.121292   -7.809712   -0.121883
     28          1           0        1.826104   -4.673106    2.356233
     29          7           0        2.337452   -6.351839    0.324578
     30          6           0        2.482783   -7.333867   -0.738608
     31          6           0        3.451039   -5.467412    0.638287
     32          1           0        2.290163   -8.351594   -0.365237
     33          1           0        3.502452   -7.293717   -1.132587
     34          1           0        1.783202   -7.132620   -1.563458
     35          1           0        3.150286   -4.412434    0.549647
     36          1           0        4.268925   -5.658559   -0.063239
     37          1           0        3.818959   -5.636076    1.662178
 ---------------------------------------------------------------------
                    Distance matrix (angstroms):
                    1          2          3          4          5
     1  C    0.000000
     2  C    1.403955   0.000000
     3  C    1.427525   2.454644   0.000000
     4  O    1.347442   2.368670   2.415262   0.000000
     5  C    2.421462   1.387003   2.823498   3.638560   0.000000
     6  H    2.143048   1.089994   3.428537   2.573445   2.168141
     7  C    2.427777   2.787493   1.411051   3.672209   2.409314
     8  C    2.500353   3.792319   1.476376   2.837149   4.298996
     9  H    1.883036   3.188998   2.325623   1.048179   4.304154
    10  C    2.805561   2.419550   2.445368   4.152577   1.401418
    11  H    3.410242   2.150865   3.914595   4.517202   1.091176
    12  H    3.424285   3.875954   2.171966   4.575486   3.385262
    13  C    3.823042   4.990734   2.537407   4.275868   5.213237
    14  O    2.775002   4.178326   2.371459   2.457392   5.011541
    15  H    3.895097   3.406553   3.428833   5.242008   2.166112
    16  C    4.956045   6.220031   3.800368   5.141601   6.549678
    17  H    4.150429   5.102371   2.733939   4.879929   5.029500
    18  C    6.296350   7.500010   5.048256   6.559162   7.681679
    19  H    5.021872   6.378428   4.102368   4.915452   6.921703
    20  C    6.824826   7.874468   5.454326   7.323594   7.809703
    21  C    7.399111   8.674963   6.252331   7.472601   8.969666
    22  H    6.305014   7.225752   4.890398   6.977937   7.013736
    23  C    8.196855   9.226307   6.819342   8.691899   9.102780
    24  C    8.688583   9.927562   7.482179   8.822583  10.127244
    25  H    7.349082   8.689991   6.351538   7.228158   9.145912
    26  C    9.084942  10.217499   7.769458   9.411715  10.227785
    27  H    8.712114   9.631797   7.301024   9.333131   9.358569
    28  H    9.524868  10.805330   8.380414   9.549031  11.079989
    29  N   10.421790  11.530755   9.090358  10.767420  11.486733
    30  C   11.019577  12.019386   9.633406  11.512628  11.813742
    31  C   11.410927  12.590906  10.136798  11.625630  12.651391
    32  H   10.770459  11.728401   9.383861  11.308471  11.480174
    33  H   12.102039  13.111034  10.720365  12.572137  12.906320
    34  H   10.842100  11.775219   9.434709  11.419354  11.487369
    35  H   11.340139  12.543982  10.102540  11.499785  12.658777
    36  H   12.398575  13.547072  11.097180  12.659098  13.545866
    37  H   11.440016  12.666163  10.218640  11.562616  12.811052
                    6          7          8          9         10
     6  H    0.000000
     7  C    3.877059   0.000000
     8  C    4.642038   2.544428   0.000000
     9  H    3.572174   3.727247   2.160612   0.000000
    10  C    3.418365   1.386546   3.815038   4.522239   0.000000
    11  H    2.504878   3.396167   5.389977   5.281507   2.160456
    12  H    4.965671   1.088835   2.788331   4.446401   2.127676
    13  C    5.932969   2.998178   1.438864   3.557065   4.384581
    14  O    4.796699   3.678117   1.285011   1.464371   4.816510
    15  H    4.322182   2.150844   4.693397   5.591183   1.089614
    16  C    7.095974   4.367283   2.456402   4.248510   5.753182
    17  H    6.133078   2.639435   2.177037   4.325807   3.968548
    18  C    8.425009   5.362796   3.814621   5.675866   6.726924
    19  H    7.137453   4.951815   2.633560   3.920168   6.313171
    20  C    8.881478   5.404783   4.490952   6.552184   6.674910
    21  C    9.539515   6.704554   4.901814   6.506610   8.080758
    22  H    8.272086   4.611516   4.181559   6.325176   5.802907
    23  C   10.243226   6.694235   5.862332   7.902739   7.914930
    24  C   10.827014   7.793889   6.189474   7.868440   9.145058
    25  H    9.469087   7.011874   4.913411   6.212339   8.395817
    26  C   11.189446   7.828928   6.638645   8.530839   9.110655
    27  H   10.682401   6.975228   6.509689   8.615124   8.089767
    28  H   11.665148   8.781097   7.029439   8.558258  10.145236
    29  N   12.516049   9.079302   7.988024   9.887594  10.325362
    30  C   13.049613   9.416465   8.687467  10.703128  10.562590
    31  C   13.535772  10.258669   8.928112  10.688331  11.547787
    32  H   12.765907   9.110245   8.507240  10.536281  10.217684
    33  H   14.138954  10.509947   9.752907  11.745761  11.650857
    34  H   12.822879   9.112065   8.582876  10.655442  10.200660
    35  H   13.462511  10.292754   8.856858  10.545829  11.597485
    36  H   14.511883  11.141470   9.930758  11.735805  12.398268
    37  H   13.577387  10.445117   8.949958  10.598446  11.764214
                   11         12         13         14         15
    11  H    0.000000
    12  H    4.278834   0.000000
    13  C    6.280667   2.677154   0.000000
    14  O    6.077300   4.056246   2.369598   0.000000
    15  H    2.491031   2.445110   5.026520   5.785063   0.000000
    16  C    7.625370   3.985992   1.370883   2.822682   6.377374
    17  H    6.035468   1.962864   1.088121   3.327583   4.407367
    18  C    8.729300   4.744879   2.511295   4.247229   7.189349
    19  H    8.011405   4.769045   2.103741   2.462384   7.056906
    20  C    8.791557   4.563346   3.057189   5.215754   6.929569
    21  C   10.033712   6.139691   3.759719   5.042319   8.582581
    22  H    7.949108   3.678451   2.787845   5.123594   5.963018
    23  C   10.056129   5.788536   4.431000   6.539507   8.070455
    24  C   11.170714   7.111701   4.950480   6.404803   9.542422
    25  H   10.228756   6.596276   4.020406   4.773751   9.008846
    26  C   11.221323   6.998985   5.262990   7.095708   9.351098
    27  H   10.248735   5.983762   5.080121   7.315313   8.101106
    28  H   12.136367   8.142000   5.874514   7.098739  10.579889
    29  N   12.457999   8.200454   6.601091   8.451197  10.492555
    30  C   12.721083   8.446961   7.258515   9.313194  10.582429
    31  C   13.652826   9.437492   7.605681   9.227305  11.782958
    32  H   12.365808   8.131198   7.094095   9.186904  10.203680
    33  H   13.809945   9.537469   8.328540  10.341604  11.654637
    34  H   12.357980   8.107818   7.145265   9.300185  10.153078
    35  H   13.671352   9.515138   7.580430   9.086181  11.878147
    36  H   14.525663  10.274998   8.579799  10.278281  12.569074
    37  H   13.835555   9.681310   7.692136   9.141638  12.064863
                   16         17         18         19         20
    16  C    0.000000
    17  H    2.132066   0.000000
    18  C    1.429418   2.788004   0.000000
    19  H    1.095385   3.077640   2.147088   0.000000
    20  C    2.512714   2.793901   1.417145   3.455718   0.000000
    21  C    2.455762   4.182146   1.415661   2.613853   2.410872
    22  H    2.769432   2.162503   2.176724   3.842407   1.090708
    23  C    3.768110   4.128729   2.442394   4.586712   1.375800
    24  C    3.734767   5.182524   2.447420   3.989763   2.790473
    25  H    2.650530   4.674403   2.159355   2.336177   3.400198
    26  C    4.289087   5.198881   2.861080   4.841662   2.439646
    27  H    4.634220   4.570799   3.414357   5.538777   2.123641
    28  H    4.585769   6.198019   3.420955   4.640511   3.877399
    29  N    5.646896   6.471490   4.218923   6.173973   3.680276
    30  C    6.508844   6.920490   5.104161   7.193479   4.204356
    31  C    6.498253   7.624246   5.115540   6.826596   4.882559
    32  H    6.455837   6.687175   5.112913   7.201299   4.088339
    33  H    7.531665   8.011471   6.113259   8.162726   5.280954
    34  H    6.513891   6.708932   5.156223   7.279219   4.134891
    35  H    6.417289   7.680095   5.096702   6.653265   5.053531
    36  H    7.521823   8.522451   6.118269   7.895244   5.743492
    37  H    6.520676   7.810986   5.205912   6.735407   5.145892
                   21         22         23         24         25
    21  C    0.000000
    22  H    3.409581   0.000000
    23  C    2.782203   2.120988   0.000000
    24  C    1.377883   3.881021   2.433995   0.000000
    25  H    1.090973   4.315260   3.873081   2.135093   0.000000
    26  C    2.433290   3.415679   1.427087   1.422179   3.418024
    27  H    3.868897   2.412240   1.086889   3.429077   4.959708
    28  H    2.130385   4.967990   3.429244   1.087153   2.440354
    29  N    3.676455   4.546440   2.427579   2.424116   4.556044
    30  C    4.870047   4.811043   2.828601   3.756147   5.842201
    31  C    4.215159   5.842755   3.764843   2.837515   4.841951
    32  H    5.062729   4.555408   2.784334   4.096545   6.071141
    33  H    5.740060   5.904648   3.906289   4.513599   6.644262
    34  H    5.102023   4.604444   2.832810   4.127534   6.112753
    35  H    4.075386   6.055415   4.090167   2.776051   4.567041
    36  H    5.288428   6.631802   4.514131   3.912883   5.934890
    37  H    4.181019   6.144502   4.156862   2.866939   4.669097
                   26         27         28         29         30
    26  C    0.000000
    27  H    2.187118   0.000000
    28  H    2.181617   4.345773   0.000000
    29  N    1.357883   2.689997   2.684631   0.000000
    30  C    2.437240   2.486648   4.133874   1.454601   0.000000
    31  C    2.443601   4.141430   2.494529   1.456262   2.513367
    32  H    2.749175   2.248746   4.599242   2.115916   1.101034
    33  H    3.333018   3.566513   4.674357   2.089902   1.093872
    34  H    2.781001   2.301855   4.627637   2.116953   1.100132
    35  H    2.741595   4.600789   2.255030   2.114863   3.261891
    36  H    3.334452   4.672661   3.576638   2.088451   2.540292
    37  H    2.804401   4.645461   2.319589   2.120461   3.229804
                   31         32         33         34         35
    31  C    0.000000
    32  H    3.266986   0.000000
    33  H    2.544411   1.782575   0.000000
    34  H    3.225256   1.782874   1.779725   0.000000
    35  H    1.100585   4.134466   3.354955   3.705880   0.000000
    36  H    1.094355   3.355464   2.098744   3.256122   1.783202
    37  H    1.100984   3.717750   3.264761   4.097399   1.783858
                   36         37
    36  H    0.000000
    37  H    1.783266   0.000000
 Symmetry turned off by external request.
 Stoichiometry    C17H17NO2
 Framework group  C1[X(C17H17NO2)]
 Deg. of freedom   105
 Full point group                 C1      NOp   1
 Rotational constants (GHZ):      1.0904253      0.1072611      0.0979095
 Leave Link  202 at Thu Aug  9 19:14:33 2018, MaxMem=  1879048192 cpu:         0.0
 (Enter /share/apps/gaussian/g09_D01/g09/l301.exe)
 Standard basis: 6-311++G(d,p) (5D, 7F)
 Ernie: Thresh=  0.10000D-02 Tol=  0.10000D-05 Strict=F.
   559 basis functions,   873 primitive gaussians,   579 cartesian basis functions
    71 alpha electrons       71 beta electrons
       nuclear repulsion energy      1358.4110009206 Hartrees.
 IExCor= 4639 DFT=T Ex+Corr=wB97XD ExCW=0 ScaHFX=  1.000000
 ScaDFX=  1.000000  1.000000  1.000000  1.000000 ScalE2=  1.000000  1.000000
 IRadAn=      0 IRanWt=     -1 IRanGd=            0 ICorTp=0 IEmpDi=121
  HFx wShort=  0.000000 wLong=  0.200000 cFull=  0.222036 cShort=  0.000000 cLong=  0.777964
  DFx wShort=  0.000000 wLong=  0.200000 cFull=  0.000000 cShort=  0.000000 cLong=  1.000000
 NAtoms=   37 NActive=   37 NUniq=   37 SFac= 1.00D+00 NAtFMM=   60 NAOKFM=F Big=F
 Integral buffers will be    131072 words long.
 Raffenetti 1 integral format.
 Two-electron integral symmetry is turned off.
 R6Disp:  Grimme-D2 Dispersion energy=       -0.0228555467 Hartrees.
 Nuclear repulsion after empirical dispersion term =     1358.3881453739 Hartrees.
 Leave Link  301 at Thu Aug  9 19:14:34 2018, MaxMem=  1879048192 cpu:         0.1
 (Enter /share/apps/gaussian/g09_D01/g09/l302.exe)
 NPDir=0 NMtPBC=     1 NCelOv=     1 NCel=       1 NClECP=     1 NCelD=      1
         NCelK=      1 NCelE2=     1 NClLst=     1 CellRange=     0.0.
 One-electron integrals computed using PRISM.
 NBasis=   559 RedAO= T EigKep=  1.16D-06  NBF=   559
 NBsUse=   553 1.00D-06 EigRej=  5.34D-07 NBFU=   553
 Precomputing XC quadrature grid using
 IXCGrd= 4 IRadAn=           0 IRanWt=          -1 IRanGd=           0 AccXCQ= 0.00D+00.
 Generated NRdTot=       0 NPtTot=           0 NUsed=           0 NTot=          32
 NSgBfM=   560   560   562   565   565 MxSgAt=    37 MxSgA2=    37.
 Leave Link  302 at Thu Aug  9 19:14:35 2018, MaxMem=  1879048192 cpu:         2.1
 (Enter /share/apps/gaussian/g09_D01/g09/l308.exe)
 Leave Link  308 at Thu Aug  9 19:14:35 2018, MaxMem=  1879048192 cpu:         0.3
 (Enter /share/apps/gaussian/g09_D01/g09/l303.exe)
 DipDrv:  MaxL=1.
 Leave Link  303 at Thu Aug  9 19:14:35 2018, MaxMem=  1879048192 cpu:         0.2
 (Enter /share/apps/gaussian/g09_D01/g09/l401.exe)
 ExpMin= 3.60D-02 ExpMax= 8.59D+03 ExpMxC= 1.30D+03 IAcc=3 IRadAn=         5 AccDes= 0.00D+00
 Harris functional with IExCor= 4639 and IRadAn=       5 diagonalized for initial guess.
 HarFok:  IExCor= 4639 AccDes= 0.00D+00 IRadAn=         5 IDoV= 1 UseB2=F ITyADJ=14
 ICtDFT=  3500011 ScaDFX=  1.000000  1.000000  1.000000  1.000000
 FoFCou: FMM=F IPFlag=           0 FMFlag=      100000 FMFlg1=           0
         NFxFlg=           0 DoJE=T BraDBF=F KetDBF=T FulRan=T
         wScrn=  0.000000 ICntrl=     500 IOpCl=  0 I1Cent=   200000004 NGrid=           0
         NMat0=    1 NMatS0=      1 NMatT0=    0 NMatD0=    1 NMtDS0=    0 NMtDT0=    0
 Symmetry not used in FoFCou.
 Harris En= -825.474436414888    
 JPrj=0 DoOrth=F DoCkMO=F.
 Leave Link  401 at Thu Aug  9 19:14:52 2018, MaxMem=  1879048192 cpu:        33.6
 (Enter /share/apps/gaussian/g09_D01/g09/l502.exe)
 Closed shell SCF:
 Using DIIS extrapolation, IDIIS=  1040.
 Two-electron integral symmetry not used.
 IVT=     1031295 IEndB=     1031295 NGot=  1879048192 MDV=  1878369358
 LenX=  1878369358 LenY=  1878033538
 Requested convergence on RMS density matrix=1.00D-08 within 128 cycles.
 Requested convergence on MAX density matrix=1.00D-06.
 Requested convergence on             energy=1.00D-06.
 No special actions if energy rises.
 Fock matrices will be formed incrementally for  20 cycles.

 Cycle   1  Pass 1  IDiag  1:
 FoFJK:  IHMeth= 1 ICntrl=       0 DoSepK=T KAlg= 0 I1Cent=   0 FoldK=F
 IRaf=         1 NMat=   1 IRICut=       1 DoRegI=T DoRafI=F ISym2E= 0.
 FoFCou: FMM=F IPFlag=           0 FMFlag=      100000 FMFlg1=           0
         NFxFlg=           0 DoJE=T BraDBF=F KetDBF=F FulRan=T
         wScrn=  0.000000 ICntrl=     500 IOpCl=  0 I1Cent=           0 NGrid=           0
         NMat0=    1 NMatS0=      1 NMatT0=    0 NMatD0=    1 NMtDS0=    0 NMtDT0=    0
 Symmetry not used in FoFCou.
 E= -862.876316718993    
 DIIS: error= 5.79D-02 at cycle   1 NSaved=   1.
 NSaved= 1 IEnMin= 1 EnMin= -862.876316718993     IErMin= 1 ErrMin= 5.79D-02
 ErrMax= 5.79D-02  0.00D+00 EMaxC= 1.00D-01 BMatC= 1.87D+00 BMatP= 1.87D+00
 IDIUse=3 WtCom= 4.21D-01 WtEn= 5.79D-01
 Coeff-Com:  0.100D+01
 Coeff-En:   0.100D+01
 Coeff:      0.100D+01
 Gap=     0.280 Goal=   None    Shift=    0.000
 GapD=    0.280 DampG=1.000 DampE=0.500 DampFc=0.5000 IDamp=-1.
 Damping current iteration by 5.00D-01
 RMSDP=2.62D-02 MaxDP=3.00D+00              OVMax= 1.99D-01

 Cycle   2  Pass 1  IDiag  1:
 RMSU=  5.50D-03    CP:  8.54D-01
 E= -863.003517649921     Delta-E=       -0.127200930928 Rises=F Damp=T
 DIIS: error= 2.68D-02 at cycle   2 NSaved=   2.
 NSaved= 2 IEnMin= 2 EnMin= -863.003517649921     IErMin= 2 ErrMin= 2.68D-02
 ErrMax= 2.68D-02  0.00D+00 EMaxC= 1.00D-01 BMatC= 3.94D-01 BMatP= 1.87D+00
 IDIUse=3 WtCom= 7.32D-01 WtEn= 2.68D-01
 Coeff-Com: -0.579D+00 0.158D+01
 Coeff-En:   0.000D+00 0.100D+01
 Coeff:     -0.424D+00 0.142D+01
 Gap=     0.275 Goal=   None    Shift=    0.000
 RMSDP=1.47D-02 MaxDP=1.58D+00 DE=-1.27D-01 OVMax= 2.24D-01

 Cycle   3  Pass 1  IDiag  1:
 RMSU=  5.36D-03    CP:  6.88D-01  1.41D+00
 E= -863.048911558056     Delta-E=       -0.045393908135 Rises=F Damp=F
 DIIS: error= 2.40D-02 at cycle   3 NSaved=   3.
 NSaved= 3 IEnMin= 3 EnMin= -863.048911558056     IErMin= 3 ErrMin= 2.40D-02
 ErrMax= 2.40D-02  0.00D+00 EMaxC= 1.00D-01 BMatC= 1.31D-01 BMatP= 3.94D-01
 IDIUse=3 WtCom= 7.60D-01 WtEn= 2.40D-01
 Coeff-Com: -0.377D+00 0.809D+00 0.567D+00
 Coeff-En:   0.000D+00 0.252D+00 0.748D+00
 Coeff:     -0.286D+00 0.676D+00 0.611D+00
 Gap=     0.271 Goal=   None    Shift=    0.000
 RMSDP=4.77D-03 MaxDP=3.63D-01 DE=-4.54D-02 OVMax= 1.10D-01

 Cycle   4  Pass 1  IDiag  1:
 RMSU=  1.79D-03    CP:  6.50D-01  1.56D+00  4.30D-01
 E= -863.152347915657     Delta-E=       -0.103436357602 Rises=F Damp=F
 DIIS: error= 5.27D-03 at cycle   4 NSaved=   4.
 NSaved= 4 IEnMin= 4 EnMin= -863.152347915657     IErMin= 4 ErrMin= 5.27D-03
 ErrMax= 5.27D-03  0.00D+00 EMaxC= 1.00D-01 BMatC= 1.21D-02 BMatP= 1.31D-01
 IDIUse=3 WtCom= 9.47D-01 WtEn= 5.27D-02
 Coeff-Com: -0.142D+00 0.307D+00 0.348D+00 0.487D+00
 Coeff-En:   0.000D+00 0.000D+00 0.178D-01 0.982D+00
 Coeff:     -0.135D+00 0.291D+00 0.331D+00 0.513D+00
 Gap=     0.239 Goal=   None    Shift=    0.000
 RMSDP=1.29D-03 MaxDP=1.22D-01 DE=-1.03D-01 OVMax= 2.51D-02

 Cycle   5  Pass 1  IDiag  1:
 RMSU=  4.78D-04    CP:  6.61D-01  1.60D+00  5.58D-01  7.59D-01
 E= -863.162204263113     Delta-E=       -0.009856347455 Rises=F Damp=F
 DIIS: error= 7.43D-04 at cycle   5 NSaved=   5.
 NSaved= 5 IEnMin= 5 EnMin= -863.162204263113     IErMin= 5 ErrMin= 7.43D-04
 ErrMax= 7.43D-04  0.00D+00 EMaxC= 1.00D-01 BMatC= 1.77D-04 BMatP= 1.21D-02
 IDIUse=3 WtCom= 9.93D-01 WtEn= 7.43D-03
 Coeff-Com:  0.236D-01-0.505D-01 0.457D-02 0.154D+00 0.868D+00
 Coeff-En:   0.000D+00 0.000D+00 0.000D+00 0.000D+00 0.100D+01
 Coeff:      0.234D-01-0.501D-01 0.454D-02 0.153D+00 0.869D+00
 Gap=     0.239 Goal=   None    Shift=    0.000
 RMSDP=4.14D-04 MaxDP=3.29D-02 DE=-9.86D-03 OVMax= 9.09D-03

 Cycle   6  Pass 1  IDiag  1:
 RMSU=  2.55D-04    CP:  6.58D-01  1.59D+00  5.54D-01  8.80D-01  1.03D+00
 E= -863.162454835948     Delta-E=       -0.000250572835 Rises=F Damp=F
 DIIS: error= 5.71D-04 at cycle   6 NSaved=   6.
 NSaved= 6 IEnMin= 6 EnMin= -863.162454835948     IErMin= 6 ErrMin= 5.71D-04
 ErrMax= 5.71D-04  0.00D+00 EMaxC= 1.00D-01 BMatC= 5.91D-05 BMatP= 1.77D-04
 IDIUse=3 WtCom= 9.94D-01 WtEn= 5.71D-03
 Coeff-Com:  0.287D-01-0.618D-01-0.425D-01 0.156D-02 0.442D+00 0.632D+00
 Coeff-En:   0.000D+00 0.000D+00 0.000D+00 0.000D+00 0.000D+00 0.100D+01
 Coeff:      0.286D-01-0.614D-01-0.423D-01 0.155D-02 0.440D+00 0.634D+00
 Gap=     0.241 Goal=   None    Shift=    0.000
 RMSDP=1.02D-04 MaxDP=8.14D-03 DE=-2.51D-04 OVMax= 4.69D-03

 Cycle   7  Pass 1  IDiag  1:
 RMSU=  6.70D-05    CP:  6.58D-01  1.60D+00  5.52D-01  8.99D-01  1.16D+00
                    CP:  1.04D+00
 E= -863.162529757071     Delta-E=       -0.000074921124 Rises=F Damp=F
 DIIS: error= 1.50D-04 at cycle   7 NSaved=   7.
 NSaved= 7 IEnMin= 7 EnMin= -863.162529757071     IErMin= 7 ErrMin= 1.50D-04
 ErrMax= 1.50D-04  0.00D+00 EMaxC= 1.00D-01 BMatC= 4.93D-06 BMatP= 5.91D-05
 IDIUse=3 WtCom= 9.98D-01 WtEn= 1.50D-03
 Coeff-Com:  0.217D-02-0.462D-02-0.827D-02-0.200D-01-0.341D-01 0.176D+00
 Coeff-Com:  0.888D+00
 Coeff-En:   0.000D+00 0.000D+00 0.000D+00 0.000D+00 0.000D+00 0.000D+00
 Coeff-En:   0.100D+01
 Coeff:      0.216D-02-0.461D-02-0.826D-02-0.200D-01-0.341D-01 0.176D+00
 Coeff:      0.889D+00
 Gap=     0.241 Goal=   None    Shift=    0.000
 RMSDP=5.47D-05 MaxDP=4.12D-03 DE=-7.49D-05 OVMax= 2.75D-03

 Cycle   8  Pass 1  IDiag  1:
 RMSU=  3.52D-05    CP:  6.58D-01  1.60D+00  5.49D-01  9.11D-01  1.19D+00
                    CP:  1.15D+00  1.06D+00
 E= -863.162542522862     Delta-E=       -0.000012765790 Rises=F Damp=F
 DIIS: error= 7.89D-05 at cycle   8 NSaved=   8.
 NSaved= 8 IEnMin= 8 EnMin= -863.162542522862     IErMin= 8 ErrMin= 7.89D-05
 ErrMax= 7.89D-05  0.00D+00 EMaxC= 1.00D-01 BMatC= 1.28D-06 BMatP= 4.93D-06
 IDIUse=1 WtCom= 1.00D+00 WtEn= 0.00D+00
 Coeff-Com: -0.328D-02 0.707D-02 0.239D-02-0.114D-01-0.952D-01-0.141D-01
 Coeff-Com:  0.412D+00 0.702D+00
 Coeff:     -0.328D-02 0.707D-02 0.239D-02-0.114D-01-0.952D-01-0.141D-01
 Coeff:      0.412D+00 0.702D+00
 Gap=     0.241 Goal=   None    Shift=    0.000
 RMSDP=2.56D-05 MaxDP=2.89D-03 DE=-1.28D-05 OVMax= 1.45D-03

 Cycle   9  Pass 1  IDiag  1:
 RMSU=  1.25D-05    CP:  6.58D-01  1.60D+00  5.48D-01  9.15D-01  1.22D+00
                    CP:  1.18D+00  1.20D+00  1.12D+00
 E= -863.162545659184     Delta-E=       -0.000003136323 Rises=F Damp=F
 DIIS: error= 2.81D-05 at cycle   9 NSaved=   9.
 NSaved= 9 IEnMin= 9 EnMin= -863.162545659184     IErMin= 9 ErrMin= 2.81D-05
 ErrMax= 2.81D-05  0.00D+00 EMaxC= 1.00D-01 BMatC= 1.50D-07 BMatP= 1.28D-06
 IDIUse=1 WtCom= 1.00D+00 WtEn= 0.00D+00
 Coeff-Com: -0.130D-02 0.277D-02 0.273D-02 0.143D-02-0.193D-01-0.366D-01
 Coeff-Com: -0.864D-01 0.147D+00 0.989D+00
 Coeff:     -0.130D-02 0.277D-02 0.273D-02 0.143D-02-0.193D-01-0.366D-01
 Coeff:     -0.864D-01 0.147D+00 0.989D+00
 Gap=     0.241 Goal=   None    Shift=    0.000
 RMSDP=1.43D-05 MaxDP=1.15D-03 DE=-3.14D-06 OVMax= 7.88D-04

 Cycle  10  Pass 1  IDiag  1:
 RMSU=  8.83D-06    CP:  6.58D-01  1.60D+00  5.48D-01  9.16D-01  1.22D+00
                    CP:  1.20D+00  1.28D+00  1.25D+00  1.16D+00
 E= -863.162546288914     Delta-E=       -0.000000629730 Rises=F Damp=F
 DIIS: error= 1.13D-05 at cycle  10 NSaved=  10.
 NSaved=10 IEnMin=10 EnMin= -863.162546288914     IErMin=10 ErrMin= 1.13D-05
 ErrMax= 1.13D-05  0.00D+00 EMaxC= 1.00D-01 BMatC= 2.11D-08 BMatP= 1.50D-07
 IDIUse=1 WtCom= 1.00D+00 WtEn= 0.00D+00
 Coeff-Com:  0.217D-03-0.469D-03 0.331D-03 0.223D-02 0.808D-02-0.728D-02
 Coeff-Com: -0.846D-01-0.519D-01 0.286D+00 0.847D+00
 Coeff:      0.217D-03-0.469D-03 0.331D-03 0.223D-02 0.808D-02-0.728D-02
 Coeff:     -0.846D-01-0.519D-01 0.286D+00 0.847D+00
 Gap=     0.241 Goal=   None    Shift=    0.000
 RMSDP=5.03D-06 MaxDP=4.31D-04 DE=-6.30D-07 OVMax= 2.66D-04

 Cycle  11  Pass 1  IDiag  1:
 RMSU=  1.79D-06    CP:  6.58D-01  1.60D+00  5.48D-01  9.16D-01  1.23D+00
                    CP:  1.20D+00  1.30D+00  1.30D+00  1.30D+00  1.13D+00
 E= -863.162546362056     Delta-E=       -0.000000073142 Rises=F Damp=F
 DIIS: error= 4.25D-06 at cycle  11 NSaved=  11.
 NSaved=11 IEnMin=11 EnMin= -863.162546362056     IErMin=11 ErrMin= 4.25D-06
 ErrMax= 4.25D-06  0.00D+00 EMaxC= 1.00D-01 BMatC= 4.94D-09 BMatP= 2.11D-08
 IDIUse=1 WtCom= 1.00D+00 WtEn= 0.00D+00
 Coeff-Com:  0.271D-03-0.578D-03-0.281D-03 0.758D-03 0.575D-02 0.296D-02
 Coeff-Com: -0.122D-01-0.370D-01-0.867D-01 0.287D+00 0.840D+00
 Coeff:      0.271D-03-0.578D-03-0.281D-03 0.758D-03 0.575D-02 0.296D-02
 Coeff:     -0.122D-01-0.370D-01-0.867D-01 0.287D+00 0.840D+00
 Gap=     0.241 Goal=   None    Shift=    0.000
 RMSDP=1.99D-06 MaxDP=9.14D-05 DE=-7.31D-08 OVMax= 8.01D-05

 Cycle  12  Pass 1  IDiag  1:
 RMSU=  9.67D-07    CP:  6.58D-01  1.60D+00  5.47D-01  9.16D-01  1.23D+00
                    CP:  1.20D+00  1.31D+00  1.31D+00  1.35D+00  1.21D+00
                    CP:  1.31D+00
 E= -863.162546374443     Delta-E=       -0.000000012387 Rises=F Damp=F
 DIIS: error= 2.47D-06 at cycle  12 NSaved=  12.
 NSaved=12 IEnMin=12 EnMin= -863.162546374443     IErMin=12 ErrMin= 2.47D-06
 ErrMax= 2.47D-06  0.00D+00 EMaxC= 1.00D-01 BMatC= 7.69D-10 BMatP= 4.94D-09
 IDIUse=1 WtCom= 1.00D+00 WtEn= 0.00D+00
 Coeff-Com:  0.682D-04-0.143D-03-0.145D-03 0.255D-05 0.981D-03 0.177D-02
 Coeff-Com:  0.962D-02-0.450D-02-0.784D-01-0.344D-01 0.297D+00 0.808D+00
 Coeff:      0.682D-04-0.143D-03-0.145D-03 0.255D-05 0.981D-03 0.177D-02
 Coeff:      0.962D-02-0.450D-02-0.784D-01-0.344D-01 0.297D+00 0.808D+00
 Gap=     0.241 Goal=   None    Shift=    0.000
 RMSDP=1.10D-06 MaxDP=8.23D-05 DE=-1.24D-08 OVMax= 2.84D-05

 Cycle  13  Pass 1  IDiag  1:
 RMSU=  4.26D-07    CP:  6.58D-01  1.60D+00  5.47D-01  9.16D-01  1.23D+00
                    CP:  1.20D+00  1.31D+00  1.31D+00  1.34D+00  1.27D+00
                    CP:  1.47D+00  1.15D+00
 E= -863.162546376234     Delta-E=       -0.000000001791 Rises=F Damp=F
 DIIS: error= 8.23D-07 at cycle  13 NSaved=  13.
 NSaved=13 IEnMin=13 EnMin= -863.162546376234     IErMin=13 ErrMin= 8.23D-07
 ErrMax= 8.23D-07  0.00D+00 EMaxC= 1.00D-01 BMatC= 1.96D-10 BMatP= 7.69D-10
 IDIUse=1 WtCom= 1.00D+00 WtEn= 0.00D+00
 Coeff-Com: -0.148D-04 0.321D-04-0.217D-04-0.140D-03-0.580D-03 0.187D-03
 Coeff-Com:  0.721D-02 0.415D-02-0.218D-01-0.670D-01-0.104D-01 0.394D+00
 Coeff-Com:  0.695D+00
 Coeff:     -0.148D-04 0.321D-04-0.217D-04-0.140D-03-0.580D-03 0.187D-03
 Coeff:      0.721D-02 0.415D-02-0.218D-01-0.670D-01-0.104D-01 0.394D+00
 Coeff:      0.695D+00
 Gap=     0.241 Goal=   None    Shift=    0.000
 RMSDP=3.40D-07 MaxDP=1.97D-05 DE=-1.79D-09 OVMax= 8.94D-06

 Cycle  14  Pass 1  IDiag  1:
 RMSU=  1.70D-07    CP:  6.58D-01  1.60D+00  5.47D-01  9.16D-01  1.23D+00
                    CP:  1.20D+00  1.31D+00  1.31D+00  1.35D+00  1.27D+00
                    CP:  1.52D+00  1.27D+00  9.47D-01
 E= -863.162546376652     Delta-E=       -0.000000000418 Rises=F Damp=F
 DIIS: error= 3.55D-07 at cycle  14 NSaved=  14.
 NSaved=14 IEnMin=14 EnMin= -863.162546376652     IErMin=14 ErrMin= 3.55D-07
 ErrMax= 3.55D-07  0.00D+00 EMaxC= 1.00D-01 BMatC= 1.13D-11 BMatP= 1.96D-10
 IDIUse=1 WtCom= 1.00D+00 WtEn= 0.00D+00
 Coeff-Com: -0.105D-04 0.222D-04 0.105D-04-0.431D-04-0.253D-03-0.204D-03
 Coeff-Com:  0.412D-03 0.973D-03 0.597D-02-0.954D-02-0.425D-01-0.833D-02
 Coeff-Com:  0.118D+00 0.935D+00
 Coeff:     -0.105D-04 0.222D-04 0.105D-04-0.431D-04-0.253D-03-0.204D-03
 Coeff:      0.412D-03 0.973D-03 0.597D-02-0.954D-02-0.425D-01-0.833D-02
 Coeff:      0.118D+00 0.935D+00
 Gap=     0.241 Goal=   None    Shift=    0.000
 RMSDP=1.46D-07 MaxDP=1.15D-05 DE=-4.18D-10 OVMax= 5.17D-06

 Cycle  15  Pass 1  IDiag  1:
 RMSU=  4.90D-08    CP:  6.58D-01  1.60D+00  5.47D-01  9.16D-01  1.23D+00
                    CP:  1.20D+00  1.31D+00  1.31D+00  1.35D+00  1.27D+00
                    CP:  1.52D+00  1.33D+00  1.02D+00  1.27D+00
 E= -863.162546376585     Delta-E=        0.000000000067 Rises=F Damp=F
 DIIS: error= 1.34D-07 at cycle  15 NSaved=  15.
 NSaved=15 IEnMin=14 EnMin= -863.162546376652     IErMin=15 ErrMin= 1.34D-07
 ErrMax= 1.34D-07  0.00D+00 EMaxC= 1.00D-01 BMatC= 2.21D-12 BMatP= 1.13D-11
 IDIUse=1 WtCom= 1.00D+00 WtEn= 0.00D+00
 Coeff-Com: -0.213D-05 0.442D-05 0.646D-05 0.200D-05-0.652D-05-0.907D-04
 Coeff-Com: -0.691D-03-0.358D-03 0.448D-02 0.550D-02-0.125D-01-0.460D-01
 Coeff-Com: -0.642D-01 0.263D+00 0.851D+00
 Coeff:     -0.213D-05 0.442D-05 0.646D-05 0.200D-05-0.652D-05-0.907D-04
 Coeff:     -0.691D-03-0.358D-03 0.448D-02 0.550D-02-0.125D-01-0.460D-01
 Coeff:     -0.642D-01 0.263D+00 0.851D+00
 Gap=     0.241 Goal=   None    Shift=    0.000
 RMSDP=5.11D-08 MaxDP=3.06D-06 DE= 6.73D-11 OVMax= 2.27D-06

 Cycle  16  Pass 1  IDiag  1:
 RMSU=  1.99D-08    CP:  6.58D-01  1.60D+00  5.47D-01  9.16D-01  1.23D+00
                    CP:  1.20D+00  1.31D+00  1.31D+00  1.35D+00  1.27D+00
                    CP:  1.52D+00  1.35D+00  1.07D+00  1.40D+00  1.11D+00
 E= -863.162546376608     Delta-E=       -0.000000000024 Rises=F Damp=F
 DIIS: error= 5.50D-08 at cycle  16 NSaved=  16.
 NSaved=16 IEnMin=14 EnMin= -863.162546376652     IErMin=16 ErrMin= 5.50D-08
 ErrMax= 5.50D-08  0.00D+00 EMaxC= 1.00D-01 BMatC= 3.80D-13 BMatP= 2.21D-12
 IDIUse=1 WtCom= 1.00D+00 WtEn= 0.00D+00
 Coeff-Com:  0.102D-05-0.216D-05-0.518D-06 0.745D-05 0.424D-04 0.122D-04
 Coeff-Com: -0.146D-03-0.276D-03-0.341D-03 0.273D-02 0.472D-02-0.227D-02
 Coeff-Com: -0.391D-01-0.140D+00 0.161D+00 0.101D+01
 Coeff:      0.102D-05-0.216D-05-0.518D-06 0.745D-05 0.424D-04 0.122D-04
 Coeff:     -0.146D-03-0.276D-03-0.341D-03 0.273D-02 0.472D-02-0.227D-02
 Coeff:     -0.391D-01-0.140D+00 0.161D+00 0.101D+01
 Gap=     0.241 Goal=   None    Shift=    0.000
 RMSDP=2.28D-08 MaxDP=1.20D-06 DE=-2.36D-11 OVMax= 1.17D-06

 Cycle  17  Pass 1  IDiag  1:
 RMSU=  7.55D-09    CP:  6.58D-01  1.60D+00  5.47D-01  9.16D-01  1.23D+00
                    CP:  1.20D+00  1.31D+00  1.31D+00  1.35D+00  1.27D+00
                    CP:  1.52D+00  1.35D+00  1.07D+00  1.48D+00  1.23D+00
                    CP:  1.25D+00
 E= -863.162546376553     Delta-E=        0.000000000055 Rises=F Damp=F
 DIIS: error= 1.73D-08 at cycle  17 NSaved=  17.
 NSaved=17 IEnMin=14 EnMin= -863.162546376652     IErMin=17 ErrMin= 1.73D-08
 ErrMax= 1.73D-08  0.00D+00 EMaxC= 1.00D-01 BMatC= 4.02D-14 BMatP= 3.80D-13
 IDIUse=1 WtCom= 1.00D+00 WtEn= 0.00D+00
 Coeff-Com:  0.346D-06-0.723D-06-0.624D-06 0.153D-05 0.978D-05 0.110D-04
 Coeff-Com:  0.490D-04-0.220D-04-0.523D-03 0.466D-04 0.189D-02 0.570D-02
 Coeff-Com: -0.804D-03-0.531D-01-0.585D-01 0.188D+00 0.917D+00
 Coeff:      0.346D-06-0.723D-06-0.624D-06 0.153D-05 0.978D-05 0.110D-04
 Coeff:      0.490D-04-0.220D-04-0.523D-03 0.466D-04 0.189D-02 0.570D-02
 Coeff:     -0.804D-03-0.531D-01-0.585D-01 0.188D+00 0.917D+00
 Gap=     0.241 Goal=   None    Shift=    0.000
 RMSDP=8.36D-09 MaxDP=7.41D-07 DE= 5.55D-11 OVMax= 3.37D-07

 SCF Done:  E(RwB97XD) =  -863.162546377     A.U. after   17 cycles
            NFock= 17  Conv=0.84D-08     -V/T= 2.0047
 KE= 8.591566902568D+02 PE=-4.725819980940D+03 EE= 1.645112598933D+03
 Leave Link  502 at Thu Aug  9 19:31:54 2018, MaxMem=  1879048192 cpu:      2042.9
 (Enter /share/apps/gaussian/g09_D01/g09/l801.exe)
 DoSCS=F DFT=T ScalE2(SS,OS)=  1.000000  1.000000
 ExpMin= 3.60D-02 ExpMax= 8.59D+03 ExpMxC= 1.30D+03 IAcc=3 IRadAn=         5 AccDes= 0.00D+00
 HarFok:  IExCor=  205 AccDes= 0.00D+00 IRadAn=         5 IDoV=-2 UseB2=F ITyADJ=14
 ICtDFT= 12500011 ScaDFX=  1.000000  1.000000  1.000000  1.000000
 Largest valence mixing into a core orbital is  5.71D-05
 Largest core mixing into a valence orbital is  1.62D-05
 Range of M.O.s used for correlation:    21   553
 NBasis=   559 NAE=    71 NBE=    71 NFC=    20 NFV=     0
 NROrb=    533 NOA=    51 NOB=    51 NVA=   482 NVB=   482

 **** Warning!!: The largest alpha MO coefficient is  0.13546157D+03

 Leave Link  801 at Thu Aug  9 19:31:55 2018, MaxMem=  1879048192 cpu:         1.7
 (Enter /share/apps/gaussian/g09_D01/g09/l914.exe)
 RHF ground state
 MDV=  1879048192 DFT=T DoStab=F Mixed=T DoRPA=T DoScal=F NonHer=T
 Would need an additional         71714600000 words for in-memory AO integral storage.
 Making orbital integer symmetry assigments:
     8 initial guesses have been made.
 Convergence on wavefunction:    0.001000000000000
 Davidson Disk Diagonalization:  ConvIn= 1.00D-03 SkipCon=T Conv= 1.00D-03.
 Max sub-space:   200 roots to seek:     8 dimension of matrix:        49164
 Iteration     1 Dimension     8 NMult     0 NNew      8
 CISAX will form     8 AO SS matrices at one time.
 NMat=     8 NSing=     8 JSym2X= 0.
 FoFJK:  IHMeth= 1 ICntrl=       0 DoSepK=T KAlg= 0 I1Cent=   0 FoldK=F
 IRaf=         1 NMat=  16 IRICut=       1 DoRegI=T DoRafI=F ISym2E= 0.
 FoFCou: FMM=F IPFlag=           0 FMFlag=      100000 FMFlg1=           0
         NFxFlg=           0 DoJE=F BraDBF=F KetDBF=F FulRan=T
         wScrn=  0.000000 ICntrl=     500 IOpCl=  0 I1Cent=           0 NGrid=           0
         NMat0=    8 NMatS0=      8 NMatT0=    0 NMatD0=    8 NMtDS0=    0 NMtDT0=    0
 Symmetry not used in FoFCou.
 Excitation Energies [eV] at current iteration:
 Root      1 :     3.907923591255810
 Root      2 :     4.288545397299972
 Root      3 :     4.569681333699858
 Root      4 :     5.555719422280412
 Root      5 :     5.684063760939417
 Root      6 :     5.785864981789463
 Root      7 :     5.981450628024676
 Root      8 :     6.255680110125235
 Iteration     2 Dimension    12 NMult     8 NNew      4
 CISAX will form     4 AO SS matrices at one time.
 NMat=     4 NSing=     4 JSym2X= 0.
 Root      1 not converged, maximum delta is    0.091706131909515
 Excitation Energies [eV] at current iteration:
 Root      1 :     3.397789460801548   Change is   -0.510134130454262
 Root      2 :     3.843912053733924   Change is   -0.444633343566047
 Iteration     3 Dimension    16 NMult    12 NNew      4
 CISAX will form     4 AO SS matrices at one time.
 NMat=     4 NSing=     4 JSym2X= 0.
 Root      1 not converged, maximum delta is    0.021455674024117
 Excitation Energies [eV] at current iteration:
 Root      1 :     3.353657906457898   Change is   -0.044131554343650
 Root      2 :     3.811473579855572   Change is   -0.032438473878352
 Iteration     4 Dimension    20 NMult    16 NNew      4
 CISAX will form     4 AO SS matrices at one time.
 NMat=     4 NSing=     4 JSym2X= 0.
 Root      1 not converged, maximum delta is    0.008263743923926
 Excitation Energies [eV] at current iteration:
 Root      1 :     3.347111580711506   Change is   -0.006546325746392
 Root      2 :     3.808930375472190   Change is   -0.002543204383382
 Iteration     5 Dimension    24 NMult    20 NNew      4
 CISAX will form     4 AO SS matrices at one time.
 NMat=     4 NSing=     4 JSym2X= 0.
 Root      1 not converged, maximum delta is    0.003057016759765
 Excitation Energies [eV] at current iteration:
 Root      1 :     3.346179844973229   Change is   -0.000931735738276
 Root      2 :     3.808739866381729   Change is   -0.000190509090461
 Iteration     6 Dimension    28 NMult    24 NNew      4
 CISAX will form     4 AO SS matrices at one time.
 NMat=     4 NSing=     4 JSym2X= 0.
 Root      1 not converged, maximum delta is    0.002072668613528
 Excitation Energies [eV] at current iteration:
 Root      1 :     3.346033313190920   Change is   -0.000146531782310
 Root      2 :     3.808718676369979   Change is   -0.000021190011750
 Iteration     7 Dimension    32 NMult    28 NNew      4
 CISAX will form     4 AO SS matrices at one time.
 NMat=     4 NSing=     4 JSym2X= 0.
 Root      1 has converged.
 Excitation Energies [eV] at current iteration:
 Root      1 :     3.346008780162549   Change is   -0.000024533028371
 Root      2 :     3.808716364735425   Change is   -0.000002311634554
 Convergence achieved on expansion vectors.
 ***********************************************************************
 Excited states from <AA,BB:AA,BB> singles matrix:
 ***********************************************************************
 
 1PDM for each excited state written to RWF  633
 Ground to excited state transition densities written to RWF  633
 Ground to excited state transition electric dipole moments (Au):
       state          X           Y           Z        Dip. S.      Osc.
         1        -3.5777     -0.3318      1.3595     14.7581      1.2098
 Ground to excited state transition velocity dipole moments (Au):
       state          X           Y           Z        Dip. S.      Osc.
         1         0.4342      0.0384     -0.1676      0.2181      1.1823
 Ground to excited state transition magnetic dipole moments (Au):
       state          X           Y           Z
         1         1.7255      1.5962      4.8016
 Ground to excited state transition velocity quadrupole moments (Au):
       state          XX          YY          ZZ          XY          XZ          YZ
         1        -4.5505     -0.9672     -1.5214     -5.7838      2.7285      2.2786
 <0|del|b> * <b|rxdel|0> + <0|del|b> * <b|delr+rdel|0>
 Rotatory Strengths (R) in cgs (10**-40 erg-esu-cm/Gauss)
       state          XX          YY          ZZ    R(velocity)    E-M Angle
         1       348.2780   -101.3090   -213.1219     11.2824       89.86
 1/2[<0|r|b>*<b|rxdel|0> + (<0|rxdel|b>*<b|r|0>)*]
 Rotatory Strengths (R) in cgs (10**-40 erg-esu-cm/Gauss)
       state          XX          YY          ZZ     R(length)
         1      4365.5062    374.5412  -4616.1667     41.2936
  1/2[<0|del|b>*<b|r|0> + (<0|r|b>*<b|del|0>)*] (Au)
       state          X           Y           Z        Dip. S.   Osc.(frdel)
         1        -1.5534     -0.0127     -0.2278      1.7939      1.1960

 Excitation energies and oscillator strengths:
 
 Excited state symmetry could not be determined.
 Excited State   1:      Singlet-?Sym    3.3460 eV  370.54 nm  f=1.2098  <S**2>=0.000
      70 -> 72         0.13940
      70 -> 74         0.12145
      71 -> 72         0.65961
 This state for optimization and/or second-order correction.
 Total Energy, E(TD-HF/TD-KS) =  -863.039582811    
 Copying the excited state density for this state as the 1-particle RhoCI density.
 SavETr:  write IOETrn=   770 NScale= 10 NData=  16 NLR=1 NState=    1 LETran=      28.
 Leave Link  914 at Thu Aug  9 20:01:46 2018, MaxMem=  1879048192 cpu:      3581.6
 (Enter /share/apps/gaussian/g09_D01/g09/l601.exe)
 Copying SCF densities to generalized density rwf, IOpCl= 0 IROHF=0.
 Alpha spin Natural Transition Orbitals for state    1:
                          67        68        69        70        71
                           O         O         O         O         O
     Eigenvalues --     0.00136   0.00154   0.00510   0.04809   0.94455
   1 1   C  1S         -0.00148  -0.00041   0.00012  -0.00010  -0.00015
   2        2S         -0.00235  -0.00066   0.00018  -0.00017  -0.00026
   3        2PX         0.00495   0.00721  -0.00926   0.01887   0.01354
   4        2PY         0.00303  -0.01189   0.02709  -0.05988  -0.04161
   5        2PZ        -0.01191   0.00566  -0.01706   0.03796   0.02625
   6        3S          0.00667   0.00174  -0.00028   0.00055   0.00106
   7        3PX         0.00714   0.01160  -0.01558   0.03149   0.02226
   8        3PY         0.00514  -0.01984   0.04546  -0.09926  -0.06792
   9        3PZ        -0.01891   0.00971  -0.02861   0.06271   0.04285
  10        4S          0.00443  -0.00655   0.00019   0.00330   0.00001
  11        4PX        -0.00612   0.00854  -0.01249   0.02287   0.01765
  12        4PY        -0.00026  -0.00943   0.03048  -0.07372  -0.05558
  13        4PZ        -0.01410   0.01371  -0.02424   0.04782   0.03581
  14        5S          0.04870  -0.05046  -0.20529   0.35640  -0.16521
  15        5PX         0.23305  -0.15040   0.10482   0.11468   0.10807
  16        5PY         0.04332  -0.04373   0.03658   0.00397   0.04392
  17        5PZ        -0.07560   0.04685  -0.01123  -0.05583  -0.01289
  18        6D 0       -0.00314   0.00417   0.00479  -0.02034  -0.01426
  19        6D+1       -0.00077   0.00168   0.00235  -0.00467  -0.00265
  20        6D-1       -0.00043   0.00008  -0.00323   0.01045   0.00759
  21        6D+2       -0.00205   0.00449   0.00262  -0.00961  -0.00619
  22        6D-2        0.00341  -0.00570   0.00252  -0.00437  -0.00392
  23 2   C  1S         -0.00020   0.00116  -0.00036  -0.00065  -0.00040
  24        2S         -0.00033   0.00186  -0.00057  -0.00104  -0.00065
  25        2PX         0.00494  -0.01176  -0.00272   0.01541   0.00894
  26        2PY        -0.01306   0.02433   0.01106  -0.04051  -0.02354
  27        2PZ         0.01143  -0.01869  -0.00630   0.02782   0.01630
  28        3S          0.00084  -0.00545   0.00166   0.00313   0.00203
  29        3PX         0.00768  -0.01789  -0.00452   0.02422   0.01416
  30        3PY        -0.02092   0.03938   0.01714  -0.06446  -0.03762
  31        3PZ         0.01853  -0.03000  -0.00981   0.04424   0.02587
  32        4S          0.00664  -0.00380   0.00294   0.00218   0.00250
  33        4PX         0.00234  -0.01337  -0.00768   0.02492   0.01409
  34        4PY        -0.02371   0.03449   0.02340  -0.07276  -0.04136
  35        4PZ         0.01024  -0.02485  -0.01417   0.04718   0.02751
  36        5S          0.13522  -0.06879   0.14871  -0.11740   0.08270
  37        5PX         0.06997  -0.04273   0.05298  -0.00423   0.04959
  38        5PY         0.07559  -0.04278   0.04965   0.01626   0.03690
  39        5PZ         0.09165  -0.06394   0.04043   0.05653   0.05932
  40        6D 0       -0.00267   0.00474  -0.00309   0.00338   0.00243
  41        6D+1       -0.00188   0.00184  -0.00299   0.00590   0.00418
  42        6D-1        0.00058  -0.00219   0.00088  -0.00021  -0.00020
  43        6D+2       -0.00139   0.00390  -0.00409   0.00693   0.00501
  44        6D-2       -0.00034  -0.00021   0.00217  -0.00583  -0.00418
  45 3   C  1S          0.00020   0.00252  -0.00126  -0.00078  -0.00045
  46        2S          0.00023   0.00404  -0.00202  -0.00125  -0.00073
  47        2PX        -0.00718  -0.00548  -0.00610   0.03583   0.02431
  48        2PY         0.01425  -0.02405   0.03312  -0.08410  -0.05766
  49        2PZ         0.00254   0.01325  -0.01964   0.05718   0.03927
  50        3S         -0.00067  -0.01166   0.00583   0.00374   0.00220
  51        3PX        -0.01123  -0.00555  -0.01127   0.05691   0.03869
  52        3PY         0.02365  -0.03806   0.05350  -0.13607  -0.09290
  53        3PZ         0.00454   0.02085  -0.03146   0.09250   0.06368
  54        4S         -0.00380  -0.02458   0.00747   0.00799  -0.00029
  55        4PX         0.00226  -0.01941  -0.00906   0.06061   0.03819
  56        4PY         0.03311  -0.04554   0.05863  -0.14189  -0.10246
  57        4PZ         0.00992   0.02360  -0.03460   0.09700   0.06846
  58        5S         -0.03058  -0.19708  -0.15963   0.44761  -0.06250
  59        5PX         0.22154  -0.15324  -0.02062   0.26861  -0.00809
  60        5PY         0.15997  -0.07195   0.06715   0.03762   0.02936
  61        5PZ         0.12509  -0.03342   0.09574  -0.03325   0.13414
  62        6D 0       -0.00022   0.00032  -0.00314   0.00634   0.00394
  63        6D+1        0.00068  -0.00047  -0.00111   0.00131  -0.00164
  64        6D-1        0.00049   0.00006   0.00145  -0.00390  -0.00340
  65        6D+2        0.00062  -0.00005  -0.00204   0.00286  -0.00081
  66        6D-2        0.00024   0.00037  -0.00053   0.00305   0.00513
  67 4   O  1S         -0.00255   0.00060  -0.00083   0.00010  -0.00005
  68        2S         -0.00412   0.00095  -0.00135   0.00016  -0.00008
  69        2PX         0.01788  -0.00807   0.01716  -0.02693  -0.01830
  70        2PY         0.02517  -0.03055  -0.02094   0.09529   0.06668
  71        2PZ        -0.00821   0.02125   0.01288  -0.05972  -0.04194
  72        3S          0.01243  -0.00293   0.00411  -0.00046   0.00025
  73        3PX         0.02566  -0.01132   0.02487  -0.03983  -0.02716
  74        3PY         0.03683  -0.04499  -0.03080   0.14015   0.09801
  75        3PZ        -0.01246   0.03165   0.01869  -0.08796  -0.06181
  76        4S          0.01920  -0.00469   0.00689  -0.00160   0.00044
  77        4PX         0.02461  -0.01084   0.02605  -0.04262  -0.02881
  78        4PY         0.03272  -0.04118  -0.03328   0.14357   0.10212
  79        4PZ        -0.01413   0.02984   0.01969  -0.09035  -0.06429
  80        5S         -0.00365   0.00082   0.00510  -0.01360   0.00307
  81        5PX        -0.00345  -0.00169   0.00594  -0.01454  -0.00737
  82        5PY         0.00291  -0.00270  -0.01549   0.04252   0.02831
  83        5PZ         0.00328   0.00001   0.01025  -0.02339  -0.01617
  84        6D 0        0.00130  -0.00219   0.00036   0.00171   0.00117
  85        6D+1       -0.00100   0.00045   0.00039  -0.00164  -0.00104
  86        6D-1       -0.00108   0.00123   0.00019  -0.00174  -0.00111
  87        6D+2        0.00049  -0.00080   0.00090  -0.00131  -0.00079
  88        6D-2       -0.00013  -0.00074  -0.00116   0.00308   0.00190
  89 5   C  1S          0.00070  -0.00008   0.00000   0.00021   0.00018
  90        2S          0.00114  -0.00014   0.00001   0.00034   0.00028
  91        2PX         0.00710  -0.01324   0.00966  -0.01188  -0.00884
  92        2PY        -0.02203   0.04150  -0.02823   0.03423   0.02548
  93        2PZ         0.01152  -0.02578   0.01789  -0.02301  -0.01708
  94        3S         -0.00339   0.00050  -0.00003  -0.00103  -0.00084
  95        3PX         0.01088  -0.02124   0.01555  -0.01943  -0.01432
  96        3PY        -0.03501   0.06654  -0.04559   0.05585   0.04165
  97        3PZ         0.01920  -0.04140   0.02907  -0.03752  -0.02770
  98        4S         -0.00682   0.00008   0.00030  -0.00191   0.00012
  99        4PX         0.00855  -0.01903   0.01240  -0.01490  -0.01325
 100        4PY        -0.03469   0.05561  -0.03823   0.04888   0.03782
 101        4PZ         0.00871  -0.03420   0.02226  -0.03200  -0.02678
 102        5S          0.22605  -0.16474   0.07152   0.21983   0.10720
 103        5PX         0.01261  -0.01638  -0.00711   0.03992  -0.00474
 104        5PY         0.03462  -0.02490   0.01358   0.03313   0.03298
 105        5PZ         0.05135  -0.03799   0.02799   0.02456   0.03306
 106        6D 0        0.00034  -0.00053  -0.00526   0.01128   0.00668
 107        6D+1        0.00107  -0.00235   0.00114  -0.00023   0.00005
 108        6D-1       -0.00029   0.00007   0.00330  -0.00694  -0.00409
 109        6D+2        0.00162  -0.00256  -0.00017   0.00268   0.00182
 110        6D-2       -0.00077   0.00200  -0.00434   0.00726   0.00414
 111 6   H  1S          0.00201   0.00034   0.00032  -0.00043  -0.00011
 112        2S          0.00332   0.00107  -0.00001  -0.00046  -0.00011
 113        3S          0.00091   0.00181  -0.00212   0.00150  -0.00012
 114        4S         -0.00575   0.00518  -0.00320  -0.00558  -0.00472
 115        5PX         0.00033  -0.00075  -0.00029   0.00112   0.00063
 116        5PY        -0.00115   0.00206   0.00071  -0.00298  -0.00172
 117        5PZ         0.00073  -0.00132  -0.00057   0.00209   0.00118
 118 7   C  1S          0.00376  -0.00035   0.00055   0.00036   0.00053
 119        2S          0.00610  -0.00057   0.00089   0.00059   0.00086
 120        2PX        -0.00725   0.00282   0.00525  -0.00624  -0.00090
 121        2PY        -0.00017  -0.00248  -0.01757   0.01313  -0.00223
 122        2PZ        -0.00444   0.00369   0.01046  -0.01055   0.00034
 123        3S         -0.01813   0.00159  -0.00250  -0.00184  -0.00262
 124        3PX        -0.01247   0.00412   0.00863  -0.00991  -0.00122
 125        3PY        -0.00091  -0.00384  -0.02927   0.02185  -0.00434
 126        3PZ        -0.00754   0.00582   0.01731  -0.01722   0.00076
 127        4S         -0.02561  -0.00168  -0.00502   0.00175  -0.00531
 128        4PX         0.00537   0.01152   0.00805  -0.01466  -0.00081
 129        4PY         0.02224  -0.00496  -0.02254   0.02797   0.00782
 130        4PZ         0.01543   0.00632   0.01649  -0.02040  -0.00226
 131        5S          0.40174  -0.22964   0.23844   0.09880   0.29212
 132        5PX         0.02313   0.07371   0.02203  -0.09724  -0.00957
 133        5PY         0.08663   0.01202   0.04867  -0.05179   0.04285
 134        5PZ         0.11544  -0.01267   0.05594  -0.02498   0.04625
 135        6D 0       -0.00240   0.00298  -0.00458   0.01052   0.00722
 136        6D+1       -0.00133   0.00177  -0.00490   0.01056   0.00616
 137        6D-1       -0.00052  -0.00020   0.00052  -0.00319  -0.00263
 138        6D+2       -0.00035   0.00353  -0.00657   0.01335   0.00800
 139        6D-2        0.00188  -0.00335   0.00489  -0.00592  -0.00249
 140 8   C  1S          0.00619   0.00016   0.00014  -0.00045  -0.00009
 141        2S          0.01001   0.00026   0.00023  -0.00073  -0.00014
 142        2PX        -0.01615   0.00381  -0.00947   0.00989  -0.00485
 143        2PY         0.00420   0.00609   0.01572  -0.03242   0.00689
 144        2PZ         0.02434  -0.00071  -0.01007   0.02175  -0.00422
 145        3S         -0.02933  -0.00090  -0.00063   0.00214   0.00040
 146        3PX        -0.02553   0.00730  -0.01644   0.01676  -0.00770
 147        3PY         0.00599   0.00860   0.02766  -0.05383   0.01120
 148        3PZ         0.03749  -0.00194  -0.01704   0.03696  -0.00626
 149        4S         -0.04019  -0.00501   0.00553   0.00863   0.00939
 150        4PX         0.00744  -0.02100   0.00269   0.01954  -0.00402
 151        4PY         0.00648   0.00593   0.00938  -0.03663   0.00544
 152        4PZ         0.01816  -0.00065  -0.00975   0.01857  -0.00989
 153        5S         -0.11524   0.03862  -0.03491   0.03722   0.04373
 154        5PX         0.48442  -0.36159   0.10904   0.47030   0.22214
 155        5PY         0.07523  -0.05783  -0.01859   0.13776   0.02742
 156        5PZ        -0.15453   0.09406  -0.06129  -0.09907  -0.10069
 157        6D 0        0.01003  -0.00337   0.01720  -0.00827   0.01164
 158        6D+1        0.00964  -0.01079   0.00791  -0.00586  -0.00384
 159        6D-1        0.00877   0.00406  -0.00898   0.00127  -0.00856
 160        6D+2       -0.00720  -0.00513   0.00635  -0.01131  -0.00553
 161        6D-2        0.00051  -0.00704   0.01051   0.00820   0.01674
 162 9   H  1S         -0.00107  -0.00148  -0.00121   0.00164   0.00065
 163        2S         -0.00541  -0.00038  -0.00330   0.00171   0.00073
 164        3S         -0.00543   0.00782  -0.01107   0.00956  -0.01303
 165        4S          0.01514  -0.00462   0.00656   0.00281   0.00532
 166        5PX        -0.00848   0.00581  -0.00099  -0.00624  -0.00351
 167        5PY        -0.00110  -0.00002  -0.00563   0.00925   0.00387
 168        5PZ         0.00153  -0.00108   0.00440  -0.00557  -0.00210
 169 10  C  1S         -0.00120   0.00038  -0.00025  -0.00040  -0.00037
 170        2S         -0.00189   0.00061  -0.00040  -0.00064  -0.00058
 171        2PX         0.00596  -0.01044   0.01674  -0.02505  -0.01411
 172        2PY        -0.00901   0.02334  -0.04627   0.07672   0.04443
 173        2PZ         0.00888  -0.01713   0.03159  -0.05057  -0.02911
 174        3S          0.00460  -0.00191   0.00110   0.00188   0.00165
 175        3PX         0.00841  -0.01599   0.02646  -0.04046  -0.02307
 176        3PY        -0.01518   0.03764  -0.07385   0.12240   0.07147
 177        3PZ         0.01373  -0.02728   0.05035  -0.08090  -0.04688
 178        4S          0.02763   0.00411   0.00327  -0.00131   0.00489
 179        4PX         0.02422  -0.01168   0.02748  -0.04258  -0.02044
 180        4PY        -0.00685   0.03177  -0.06942   0.12129   0.07051
 181        4PZ         0.00941  -0.02138   0.04726  -0.08212  -0.04744
 182        5S         -0.00564   0.18116   0.01536  -0.25174  -0.05705
 183        5PX        -0.00316   0.03674  -0.00118  -0.04475  -0.03194
 184        5PY        -0.02272   0.03117  -0.02540   0.00014  -0.01156
 185        5PZ        -0.03038   0.01912  -0.00295  -0.04195  -0.02586
 186        6D 0        0.00181  -0.00326   0.00280  -0.00311  -0.00183
 187        6D+1       -0.00104   0.00153   0.00043  -0.00019   0.00100
 188        6D-1       -0.00124   0.00283  -0.00156   0.00164   0.00139
 189        6D+2       -0.00035   0.00031   0.00142  -0.00092   0.00055
 190        6D-2        0.00198  -0.00384   0.00088  -0.00174  -0.00248
 191 11  H  1S          0.00055  -0.00093   0.00010   0.00039   0.00032
 192        2S          0.00050  -0.00195   0.00014   0.00110   0.00036
 193        3S          0.00063  -0.00186   0.00011   0.00147   0.00005
 194        4S          0.00865  -0.00705   0.00204   0.01068   0.00371
 195        5PX         0.00036  -0.00107   0.00069  -0.00094  -0.00078
 196        5PY        -0.00178   0.00336  -0.00235   0.00303   0.00232
 197        5PZ         0.00107  -0.00213   0.00149  -0.00199  -0.00153
 198 12  H  1S         -0.00023   0.00198  -0.00056  -0.00104  -0.00109
 199        2S          0.00190   0.00291  -0.00074  -0.00133  -0.00193
 200        3S          0.01581  -0.00022   0.00083  -0.00151   0.00185
 201        4S          0.05428  -0.01179   0.02818  -0.01997   0.03487
 202        5PX         0.00235   0.00056   0.00040  -0.00057  -0.00010
 203        5PY         0.00110  -0.00030  -0.00116   0.00128   0.00043
 204        5PZ        -0.00035   0.00048   0.00070  -0.00096  -0.00040
 205 13  C  1S         -0.00691  -0.00178   0.00105   0.00144   0.00040
 206        2S         -0.01096  -0.00282   0.00166   0.00227   0.00064
 207        2PX        -0.04220  -0.00904  -0.02863   0.00072  -0.03544
 208        2PY        -0.09023  -0.02533   0.07744   0.00178   0.08889
 209        2PZ        -0.10892   0.01223  -0.06535  -0.00487  -0.07032
 210        3S          0.02535   0.00748  -0.00486  -0.00580  -0.00186
 211        3PX        -0.05900  -0.01000  -0.04752   0.00025  -0.05758
 212        3PY        -0.12683  -0.03756   0.12300   0.00404   0.14110
 213        3PZ        -0.15583   0.01892  -0.10285  -0.00786  -0.11141
 214        4S          0.00749   0.04054  -0.01739  -0.02895  -0.00646
 215        4PX        -0.05177  -0.01141  -0.03958   0.00681  -0.05573
 216        4PY        -0.09131  -0.03271   0.11811  -0.01306   0.15177
 217        4PZ        -0.11195   0.03244  -0.10138  -0.00522  -0.11983
 218        5S         -0.31966   0.23218  -0.15171  -0.12669  -0.12041
 219        5PX         0.19639  -0.09079  -0.03442   0.24239  -0.01367
 220        5PY         0.04907  -0.01123   0.01396   0.00498   0.03018
 221        5PZ        -0.06315   0.08644  -0.00542  -0.11429  -0.02243
 222        6D 0        0.00707   0.00113  -0.00383   0.00092  -0.00378
 223        6D+1        0.00215   0.00266  -0.00513  -0.00527  -0.00355
 224        6D-1        0.00825   0.00219  -0.00079  -0.00302  -0.00004
 225        6D+2       -0.00895  -0.00062  -0.00492  -0.00519  -0.00392
 226        6D-2       -0.00088  -0.00189   0.00220   0.00641   0.00098
 227 14  O  1S         -0.00296   0.00165  -0.00127   0.00012  -0.00047
 228        2S         -0.00477   0.00269  -0.00208   0.00019  -0.00077
 229        2PX         0.06115  -0.05847   0.05458   0.00238   0.02583
 230        2PY        -0.01965   0.02385  -0.06522   0.03710  -0.02880
 231        2PZ        -0.02549  -0.01921   0.04120  -0.02704   0.01628
 232        3S          0.01557  -0.00857   0.00673  -0.00041   0.00265
 233        3PX         0.09040  -0.08609   0.08053   0.00358   0.03794
 234        3PY        -0.02762   0.03557  -0.09619   0.05442  -0.04214
 235        3PZ        -0.03557  -0.02790   0.06070  -0.03974   0.02387
 236        4S          0.00079  -0.00445   0.00427  -0.00224   0.00219
 237        4PX         0.09498  -0.08332   0.07970   0.00160   0.03932
 238        4PY        -0.02205   0.03403  -0.09593   0.05965  -0.04342
 239        4PZ        -0.03300  -0.02702   0.06140  -0.04229   0.02515
 240        5S          0.01483  -0.00558   0.00654  -0.00083   0.00547
 241        5PX        -0.00390   0.00592   0.00248  -0.01102  -0.00761
 242        5PY        -0.00745   0.00671  -0.02233   0.01743  -0.00919
 243        5PZ        -0.00304  -0.00753   0.02034  -0.01856   0.01130
 244        6D 0        0.00052   0.00115  -0.00163  -0.00013  -0.00068
 245        6D+1       -0.00105   0.00228  -0.00244  -0.00021  -0.00124
 246        6D-1        0.00120  -0.00045   0.00058   0.00037   0.00026
 247        6D+2       -0.00195   0.00197  -0.00293   0.00001  -0.00149
 248        6D-2       -0.00129   0.00146  -0.00005  -0.00107   0.00007
 249 15  H  1S         -0.00121   0.00142  -0.00041  -0.00067  -0.00042
 250        2S         -0.00342   0.00245  -0.00102  -0.00120  -0.00111
 251        3S         -0.00049   0.00256  -0.00082  -0.00204  -0.00096
 252        4S         -0.01495   0.00853  -0.00788  -0.00403  -0.01197
 253        5PX         0.00008  -0.00083   0.00136  -0.00224  -0.00140
 254        5PY        -0.00105   0.00196  -0.00392   0.00671   0.00405
 255        5PZ         0.00044  -0.00126   0.00263  -0.00460  -0.00280
 256 16  C  1S          0.01445   0.00032   0.00080  -0.00010   0.00024
 257        2S          0.02300   0.00052   0.00124  -0.00017   0.00037
 258        2PX         0.05616   0.01561  -0.02712  -0.01873  -0.01592
 259        2PY         0.04721  -0.00408   0.05780   0.04229   0.03360
 260        2PZ         0.00074   0.02666  -0.05630  -0.03444  -0.03173
 261        3S         -0.06527  -0.00189  -0.00323   0.00038  -0.00088
 262        3PX         0.07480   0.02392  -0.04360  -0.02912  -0.02536
 263        3PY         0.06935  -0.00967   0.09400   0.06696   0.05445
 264        3PZ         0.00091   0.04168  -0.08969  -0.05469  -0.05077
 265        4S          0.02683   0.01258  -0.01678  -0.00035  -0.01375
 266        4PX         0.03495   0.02795  -0.04356  -0.04144  -0.02890
 267        4PY         0.04026  -0.00072   0.07851   0.05714   0.05531
 268        4PZ         0.00342   0.02331  -0.06760  -0.04089  -0.04263
 269        5S         -0.49130   0.22764  -0.11793  -0.34234  -0.19465
 270        5PX         0.08193  -0.11580  -0.07515   0.33845   0.07684
 271        5PY         0.01167  -0.03049  -0.01511   0.10864   0.01837
 272        5PZ        -0.03409   0.00499   0.01913  -0.05245  -0.00900
 273        6D 0        0.01088  -0.00124   0.00055   0.00608  -0.00542
 274        6D+1        0.00542  -0.00142   0.00774  -0.00300   0.01315
 275        6D-1        0.00882   0.00153   0.00252  -0.00248   0.00652
 276        6D+2       -0.01258  -0.00438   0.00923  -0.00214   0.01367
 277        6D-2       -0.00325  -0.00098  -0.00723   0.00535  -0.01519
 278 17  H  1S          0.12833   0.00833   0.00211   0.00080   0.00041
 279        2S          0.19066   0.01246   0.00394   0.00060   0.00123
 280        3S          0.05981   0.00461  -0.00120   0.00198  -0.00130
 281        4S         -0.03444  -0.00218  -0.05794   0.07486  -0.03192
 282        5PX        -0.00180  -0.00036  -0.00237   0.00009  -0.00313
 283        5PY         0.00933  -0.00159   0.00665   0.00042   0.00755
 284        5PZ         0.01139   0.00202  -0.00447  -0.00001  -0.00548
 285 18  C  1S         -0.00437   0.00033  -0.00003  -0.00025   0.00016
 286        2S         -0.00716   0.00051  -0.00004  -0.00041   0.00029
 287        2PX        -0.02099   0.00257   0.00699  -0.02503   0.03429
 288        2PY        -0.01476  -0.01973  -0.01603   0.05286  -0.07426
 289        2PZ        -0.03917   0.00309   0.01838  -0.05142   0.07066
 290        3S          0.02034  -0.00118  -0.00015   0.00102  -0.00127
 291        3PX        -0.03489   0.00435   0.01186  -0.04053   0.05551
 292        3PY        -0.01842  -0.03052  -0.02629   0.08599  -0.11985
 293        3PZ        -0.05689   0.00616   0.02919  -0.08349   0.11386
 294        4S          0.00286  -0.01811   0.00919   0.01385   0.01220
 295        4PX        -0.00461   0.00774  -0.00134  -0.04473   0.05311
 296        4PY        -0.00751  -0.02677  -0.02157   0.08200  -0.13141
 297        4PZ        -0.04970  -0.00143   0.02797  -0.07063   0.12117
 298        5S         -0.29380  -0.15597  -0.08198   0.09051  -0.04456
 299        5PX        -0.07758   0.01590   0.00320  -0.12664  -0.05659
 300        5PY         0.03224   0.00526   0.11385  -0.22296  -0.00941
 301        5PZ         0.08085  -0.00050   0.11302  -0.17552   0.01949
 302        6D 0        0.00609  -0.01123  -0.01173  -0.00292  -0.00504
 303        6D+1       -0.01425  -0.01113   0.00495   0.00196   0.00464
 304        6D-1        0.00238  -0.00096   0.00440   0.00230   0.00287
 305        6D+2        0.00056  -0.01537   0.00166   0.00155   0.00265
 306        6D-2       -0.01355   0.00003  -0.00999  -0.00404  -0.00615
 307 19  H  1S          0.02914   0.01440  -0.00644   0.00137  -0.00412
 308        2S          0.05001   0.02048  -0.00951   0.00250  -0.00808
 309        3S          0.04830  -0.00132   0.00157   0.00191   0.00184
 310        4S          0.00519   0.00698   0.00873  -0.03802   0.00139
 311        5PX         0.00237   0.00142  -0.00231  -0.00153  -0.00133
 312        5PY         0.00268  -0.00151   0.00501   0.00335   0.00284
 313        5PZ         0.00016  -0.00085  -0.00289  -0.00225  -0.00192
 314 20  C  1S          0.00996  -0.00147   0.00005  -0.00018  -0.00022
 315        2S          0.01565  -0.00233   0.00008  -0.00027  -0.00037
 316        2PX         0.09803   0.03881   0.02594  -0.00267   0.01367
 317        2PY         0.07483  -0.07604  -0.05611   0.01045  -0.03427
 318        2PZ         0.02188   0.08964   0.05162  -0.00868   0.03329
 319        3S         -0.03768   0.00698  -0.00007   0.00050   0.00134
 320        3PX         0.14001   0.06235   0.04112  -0.00484   0.02236
 321        3PY         0.10703  -0.12395  -0.08976   0.01711  -0.05575
 322        3PZ         0.02989   0.14211   0.08335  -0.01457   0.05450
 323        4S         -0.06536  -0.00083   0.00701   0.00960  -0.00186
 324        4PX         0.07731   0.05214   0.04247  -0.00064   0.02531
 325        4PY         0.07863  -0.10634  -0.07279   0.01473  -0.05323
 326        4PZ         0.03468   0.12058   0.06591  -0.01397   0.04266
 327        5S          0.07622   0.07185   0.00048  -0.18016  -0.11217
 328        5PX        -0.04363  -0.00569  -0.14425   0.22232  -0.07143
 329        5PY         0.06058   0.02513   0.10853  -0.15724  -0.00128
 330        5PZ         0.08304   0.04170   0.18433  -0.29560   0.07380
 331        6D 0        0.00358  -0.00603  -0.00252  -0.01111   0.01462
 332        6D+1       -0.01081   0.00526   0.00505   0.00175  -0.00069
 333        6D-1        0.00111   0.00388   0.00250   0.00272  -0.00284
 334        6D+2       -0.00058   0.00275   0.00407  -0.00168   0.00376
 335        6D-2       -0.01380  -0.00877  -0.00547  -0.00733   0.00817
 336 21  C  1S          0.00963   0.00227  -0.00020   0.00034  -0.00020
 337        2S          0.01531   0.00360  -0.00030   0.00056  -0.00032
 338        2PX         0.02572  -0.02671   0.01099  -0.00035   0.01382
 339        2PY         0.02922   0.08092  -0.02631   0.00412  -0.03321
 340        2PZ        -0.01157  -0.06937   0.02457  -0.00359   0.03098
 341        3S         -0.04394  -0.01037   0.00074  -0.00174   0.00085
 342        3PX         0.03346  -0.04416   0.01754  -0.00105   0.02219
 343        3PY         0.04303   0.12877  -0.04158   0.00681  -0.05292
 344        3PZ        -0.01926  -0.11177   0.03880  -0.00624   0.04942
 345        4S         -0.06364  -0.00600   0.00359  -0.00348   0.00826
 346        4PX         0.01693  -0.04866   0.01495  -0.00054   0.02575
 347        4PY         0.04429   0.11186  -0.03754   0.00707  -0.05353
 348        4PZ         0.00087  -0.09712   0.02972  -0.00577   0.04698
 349        5S         -0.02802  -0.08931   0.08043  -0.07279   0.04809
 350        5PX        -0.08914  -0.09439   0.07439  -0.12119   0.01766
 351        5PY        -0.03209  -0.01286   0.01484  -0.02440  -0.02862
 352        5PZ         0.00059   0.01908  -0.02287  -0.00834   0.00708
 353        6D 0        0.00241   0.00746  -0.00407  -0.00289   0.00135
 354        6D+1        0.00089  -0.00695  -0.00054   0.00840  -0.01093
 355        6D-1        0.00251  -0.00378   0.00051   0.00443  -0.00509
 356        6D+2       -0.00035  -0.00484  -0.00159   0.00710  -0.00994
 357        6D-2       -0.00098   0.00891  -0.00165  -0.00883   0.01009
 358 22  H  1S         -0.11428  -0.00535   0.00001  -0.00166   0.00125
 359        2S         -0.17014  -0.00862   0.00129  -0.00236   0.00301
 360        3S         -0.05040  -0.00042   0.00017  -0.00106  -0.00436
 361        4S          0.01924   0.01456   0.03529  -0.05046  -0.00884
 362        5PX        -0.00991   0.00275   0.00209  -0.00054   0.00136
 363        5PY        -0.00660  -0.00723  -0.00415   0.00075  -0.00244
 364        5PZ        -0.00296   0.00724   0.00403  -0.00083   0.00258
 365 23  C  1S         -0.00662   0.00028   0.00021   0.00012   0.00003
 366        2S         -0.01057   0.00045   0.00034   0.00019   0.00004
 367        2PX        -0.05687   0.03642   0.01904   0.01419  -0.01642
 368        2PY        -0.02390  -0.08225  -0.04729  -0.03624   0.04071
 369        2PZ         0.01286   0.07654   0.04664   0.03459  -0.03941
 370        3S          0.02842  -0.00133  -0.00113  -0.00041  -0.00014
 371        3PX        -0.08006   0.05828   0.03051   0.02281  -0.02644
 372        3PY        -0.03599  -0.13123  -0.07437  -0.05716   0.06456
 373        3PZ         0.01807   0.12279   0.07336   0.05446  -0.06272
 374        4S          0.06406   0.00527  -0.00777  -0.00495  -0.00588
 375        4PX        -0.04657   0.05280   0.03485   0.03106  -0.02965
 376        4PY        -0.02230  -0.12039  -0.07374  -0.05933   0.07321
 377        4PZ         0.01362   0.11109   0.06609   0.05933  -0.07092
 378        5S          0.23619  -0.03076   0.01847   0.02179  -0.03451
 379        5PX        -0.00382  -0.01150  -0.18454   0.25239  -0.10019
 380        5PY        -0.00222  -0.04631  -0.09842   0.10482  -0.00820
 381        5PZ        -0.00016   0.00256   0.01211   0.04245  -0.02052
 382        6D 0        0.00796   0.00844   0.00587   0.00132   0.00078
 383        6D+1       -0.00617  -0.00642  -0.00523   0.00309  -0.00682
 384        6D-1        0.00610  -0.00320  -0.00326   0.00127  -0.00320
 385        6D+2       -0.00333  -0.00369  -0.00265   0.00330  -0.00611
 386        6D-2       -0.01283   0.00774   0.00713  -0.00211   0.00601
 387 24  C  1S         -0.00231  -0.00057  -0.00013  -0.00017   0.00010
 388        2S         -0.00381  -0.00094  -0.00020  -0.00027   0.00016
 389        2PX        -0.01033  -0.03773   0.00738   0.01834  -0.01941
 390        2PY         0.00091   0.08180  -0.01753  -0.04375   0.04543
 391        2PZ        -0.00487  -0.07811   0.01552   0.04074  -0.04246
 392        3S          0.01115   0.00273   0.00078   0.00085  -0.00050
 393        3PX        -0.01543  -0.06029   0.01164   0.02946  -0.03094
 394        3PY         0.00180   0.13099  -0.02701  -0.06898   0.07175
 395        3PZ        -0.00755  -0.12491   0.02399   0.06433  -0.06708
 396        4S          0.01565   0.00579  -0.00514  -0.00154  -0.00400
 397        4PX        -0.02968  -0.05648   0.01191   0.02716  -0.03046
 398        4PY        -0.00048   0.12112  -0.02464  -0.07551   0.08339
 399        4PZ        -0.00428  -0.11125   0.02683   0.06928  -0.08024
 400        5S         -0.00710   0.06383  -0.02883   0.07978   0.06599
 401        5PX        -0.04650  -0.05649   0.08642  -0.13034  -0.00174
 402        5PY         0.04007   0.05849  -0.03460   0.01681   0.02284
 403        5PZ         0.06372   0.04376  -0.06169   0.14007  -0.03997
 404        6D 0       -0.00080  -0.00521   0.00422  -0.00394   0.00930
 405        6D+1       -0.00385   0.00485  -0.00234  -0.00129  -0.00057
 406        6D-1        0.00150   0.00389  -0.00185   0.00019  -0.00195
 407        6D+2        0.00036   0.00291  -0.00090  -0.00242   0.00238
 408        6D-2       -0.00633  -0.00813   0.00404  -0.00122   0.00534
 409 25  H  1S          0.00310   0.00220   0.00005  -0.00010   0.00013
 410        2S          0.00750   0.00347   0.00081  -0.00002   0.00055
 411        3S          0.00569   0.00433   0.00025   0.00164  -0.00111
[...]
     6  H    0.000951  -0.001579   0.000412   0.002568   0.002416   0.000022
     7  C    0.439191  -0.087268  -0.007101  -0.197146   0.001063  -0.006039
     8  C   -0.087268   0.523345   0.036559   0.001824  -0.003829  -0.012495
     9  H   -0.007101   0.036559  -0.005748   0.004593  -0.000103  -0.000306
    10  C   -0.197146   0.001824   0.004593   0.444654   0.005959   0.035624
    11  H    0.001063  -0.003829  -0.000103   0.005959  -0.036779   0.000102
    12  H   -0.006039  -0.012495  -0.000306   0.035624   0.000102  -0.044412
    13  C   -0.036672  -0.064301   0.016176   0.011527  -0.001614   0.003274
    14  O    0.004473  -0.031289   0.009456  -0.001871   0.000079   0.000986
    15  H    0.016179  -0.002044   0.000127  -0.000366   0.002377   0.004170
    16  C    0.075941   0.032518   0.005353   0.048930  -0.000150   0.002260
    17  H    0.042568   0.013979   0.000719   0.001890   0.000161   0.004034
    18  C   -0.021493   0.175126  -0.000719  -0.019543  -0.000025   0.000131
    19  H   -0.000521  -0.055110   0.000347   0.003755  -0.000030  -0.000361
    20  C    0.015369  -0.092543  -0.000304   0.017556  -0.000025  -0.000962
    21  C   -0.008223  -0.025840   0.000194   0.001352   0.000000   0.000694
    22  H   -0.006066  -0.018320  -0.000090   0.003158  -0.000019  -0.001988
    23  C    0.005635  -0.001043  -0.000019   0.003979  -0.000006  -0.000858
    24  C   -0.005190  -0.061698  -0.000113   0.000012  -0.000001   0.000101
    25  H   -0.000014   0.005073  -0.000023  -0.000092   0.000000   0.000085
    26  C    0.002183  -0.033564  -0.000026   0.001318  -0.000001  -0.000426
    27  H   -0.000142   0.002232   0.000002  -0.000413   0.000000   0.000094
    28  H   -0.000021  -0.000559  -0.000001  -0.000002   0.000000  -0.000005
    29  N   -0.000032  -0.000265   0.000000  -0.000002   0.000000   0.000005
    30  C   -0.000071   0.000010   0.000000  -0.000018   0.000000  -0.000019
    31  C   -0.000030  -0.000551  -0.000001   0.000000   0.000000  -0.000004
    32  H   -0.000005  -0.000158   0.000000   0.000009   0.000000  -0.000013
    33  H   -0.000001   0.000042   0.000000  -0.000001   0.000000  -0.000001
    34  H    0.000019  -0.000042   0.000000   0.000004   0.000000   0.000013
    35  H    0.000005  -0.000020   0.000000   0.000000   0.000000   0.000003
    36  H   -0.000002  -0.000052   0.000000   0.000000   0.000000   0.000000
    37  H    0.000000   0.000079   0.000000   0.000000   0.000000  -0.000002
              13         14         15         16         17         18
     1  C   -0.195569   0.010501   0.003355  -0.066913  -0.036993   0.015692
     2  C   -0.001673   0.008853  -0.000705  -0.018003  -0.002683   0.001584
     3  C   -0.426510  -0.003996  -0.007694  -0.268308  -0.029930   0.044231
     4  O   -0.001463   0.021986  -0.000091   0.001651  -0.000040  -0.000211
     5  C   -0.028162   0.003529  -0.003919   0.001578   0.000401  -0.000405
     6  H   -0.001784  -0.000096   0.000227  -0.000091  -0.000047  -0.000054
     7  C   -0.036672   0.004473   0.016179   0.075941   0.042568  -0.021493
     8  C   -0.064301  -0.031289  -0.002044   0.032518   0.013979   0.175126
     9  H    0.016176   0.009456   0.000127   0.005353   0.000719  -0.000719
    10  C    0.011527  -0.001871  -0.000366   0.048930   0.001890  -0.019543
    11  H   -0.001614   0.000079   0.002377  -0.000150   0.000161  -0.000025
    12  H    0.003274   0.000986   0.004170   0.002260   0.004034   0.000131
    13  C   -0.036641   0.045510  -0.002800   0.239159  -0.020708   0.141459
    14  O    0.045510  -0.114038  -0.000064   0.007952  -0.004454  -0.014352
    15  H   -0.002800  -0.000064  -0.035449  -0.000622  -0.000529  -0.000114
    16  C    0.239159   0.007952  -0.000622  -0.137536   0.032800  -0.219718
    17  H   -0.020708  -0.004454  -0.000529   0.032800  -0.077390   0.013694
    18  C    0.141459  -0.014352  -0.000114  -0.219718   0.013694  -0.687136
    19  H    0.069058  -0.010017   0.000077   0.079923  -0.000033  -0.036514
    20  C    0.191721  -0.002500   0.000054   0.141516  -0.002198  -0.216045
    21  C   -0.033603   0.006403   0.000016   0.076049  -0.003121   0.012944
    22  H    0.021776  -0.000166   0.000111   0.023232   0.006363  -0.012931
    23  C    0.084736  -0.001243   0.000034   0.054076   0.011470   0.228356
    24  C   -0.096415   0.003488   0.000006  -0.029959  -0.001638   0.348955
    25  H   -0.004217   0.000282  -0.000002   0.000823   0.000240  -0.002670
    26  C   -0.004928   0.000316   0.000001   0.006916   0.001213   0.079775
    27  H   -0.000148   0.000007  -0.000002  -0.004525   0.000298   0.009493
    28  H    0.002847  -0.000010   0.000000   0.003879   0.000206   0.002574
    29  N    0.000734  -0.000001   0.000000   0.001562   0.000157   0.026217
    30  C    0.000048  -0.000001   0.000000   0.000478   0.000313   0.006828
    31  C   -0.000995   0.000003   0.000000   0.000215   0.000033   0.012451
    32  H    0.000327   0.000001   0.000000   0.000478   0.000055   0.001732
    33  H    0.000129   0.000000   0.000000   0.000149   0.000032   0.000759
    34  H   -0.000334   0.000000   0.000000   0.000153  -0.000112  -0.001392
    35  H   -0.000272  -0.000001   0.000000  -0.000326  -0.000044  -0.003376
    36  H   -0.000136   0.000000   0.000000  -0.000268  -0.000006   0.001185
    37  H    0.000159   0.000000   0.000000   0.000026   0.000028   0.001672
              19         20         21         22         23         24
     1  C   -0.022597  -0.009184  -0.000791  -0.000236   0.000491  -0.001264
     2  C   -0.002818  -0.003409   0.000253  -0.000536  -0.000537   0.000105
     3  C   -0.050150  -0.075279   0.004281  -0.005517  -0.004462  -0.005009
     4  O   -0.000441  -0.000079   0.000070  -0.000012  -0.000019   0.000010
     5  C   -0.001796   0.000680  -0.000707  -0.000253   0.000443  -0.000219
     6  H    0.000025  -0.000012   0.000014   0.000004  -0.000002   0.000003
     7  C   -0.000521   0.015369  -0.008223  -0.006066   0.005635  -0.005190
     8  C   -0.055110  -0.092543  -0.025840  -0.018320  -0.001043  -0.061698
     9  H    0.000347  -0.000304   0.000194  -0.000090  -0.000019  -0.000113
    10  C    0.003755   0.017556   0.001352   0.003158   0.003979   0.000012
    11  H   -0.000030  -0.000025   0.000000  -0.000019  -0.000006  -0.000001
    12  H   -0.000361  -0.000962   0.000694  -0.001988  -0.000858   0.000101
    13  C    0.069058   0.191721  -0.033603   0.021776   0.084736  -0.096415
    14  O   -0.010017  -0.002500   0.006403  -0.000166  -0.001243   0.003488
    15  H    0.000077   0.000054   0.000016   0.000111   0.000034   0.000006
    16  C    0.079923   0.141516   0.076049   0.023232   0.054076  -0.029959
    17  H   -0.000033  -0.002198  -0.003121   0.006363   0.011470  -0.001638
    18  C   -0.036514  -0.216045   0.012944  -0.012931   0.228356   0.348955
    19  H    0.014200   0.002843  -0.008829  -0.001722  -0.006423   0.026517
    20  C    0.002843  -0.033445  -0.010966   0.025413  -0.024948   0.094446
    21  C   -0.008829  -0.010966  -0.259003  -0.006762   0.069976   0.142038
    22  H   -0.001722   0.025413  -0.006762   0.084285  -0.029437   0.000276
    23  C   -0.006423  -0.024948   0.069976  -0.029437  -0.283931  -0.021292
    24  C    0.026517   0.094446   0.142038   0.000276  -0.021292  -0.427304
    25  H   -0.000158  -0.011292   0.022558  -0.001508  -0.003228  -0.004413
    26  C    0.006668   0.065436   0.084665  -0.003943  -0.072019   0.004565
    27  H    0.000047  -0.020327   0.008022  -0.007402  -0.015323   0.004929
    28  H   -0.000446   0.001335  -0.031269  -0.000286   0.010417  -0.008622
    29  N    0.000009   0.008523  -0.006418  -0.002425  -0.015823  -0.015652
    30  C   -0.000044  -0.003847   0.010923  -0.001578  -0.028254   0.018950
    31  C    0.000147   0.004121   0.016018  -0.000090   0.003121  -0.015505
    32  H    0.000012   0.005753  -0.003841   0.000035   0.021737  -0.007378
    33  H   -0.000019   0.002680  -0.001228  -0.000122   0.005695  -0.004977
    34  H    0.000019  -0.003749   0.000142   0.000166   0.000647   0.002359
    35  H   -0.000029  -0.003467   0.007432   0.000053  -0.010065   0.020726
    36  H    0.000021  -0.000406   0.002234   0.000038  -0.003984   0.000575
    37  H    0.000015   0.000152   0.000193  -0.000035   0.001069   0.001805
              25         26         27         28         29         30
     1  C    0.000742  -0.000460   0.000022  -0.000025   0.000000   0.000008
     2  C    0.000069  -0.000134   0.000028  -0.000002   0.000000   0.000000
     3  C    0.002680  -0.007401   0.001024  -0.000165   0.000004   0.000082
     4  O    0.000006  -0.000002   0.000000   0.000000   0.000000   0.000000
     5  C    0.000027   0.000028  -0.000009  -0.000001   0.000000   0.000000
     6  H    0.000000  -0.000001   0.000000   0.000000   0.000000   0.000000
     7  C   -0.000014   0.002183  -0.000142  -0.000021  -0.000032  -0.000071
     8  C    0.005073  -0.033564   0.002232  -0.000559  -0.000265   0.000010
     9  H   -0.000023  -0.000026   0.000002  -0.000001   0.000000   0.000000
    10  C   -0.000092   0.001318  -0.000413  -0.000002  -0.000002  -0.000018
    11  H    0.000000  -0.000001   0.000000   0.000000   0.000000   0.000000
    12  H    0.000085  -0.000426   0.000094  -0.000005   0.000005  -0.000019
    13  C   -0.004217  -0.004928  -0.000148   0.002847   0.000734   0.000048
    14  O    0.000282   0.000316   0.000007  -0.000010  -0.000001  -0.000001
    15  H   -0.000002   0.000001  -0.000002   0.000000   0.000000   0.000000
    16  C    0.000823   0.006916  -0.004525   0.003879   0.001562   0.000478
    17  H    0.000240   0.001213   0.000298   0.000206   0.000157   0.000313
    18  C   -0.002670   0.079775   0.009493   0.002574   0.026217   0.006828
    19  H   -0.000158   0.006668   0.000047  -0.000446   0.000009  -0.000044
    20  C   -0.011292   0.065436  -0.020327   0.001335   0.008523  -0.003847
    21  C    0.022558   0.084665   0.008022  -0.031269  -0.006418   0.010923
    22  H   -0.001508  -0.003943  -0.007402  -0.000286  -0.002425  -0.001578
    23  C   -0.003228  -0.072019  -0.015323   0.010417  -0.015823  -0.028254
    24  C   -0.004413   0.004565   0.004929  -0.008622  -0.015652   0.018950
    25  H    0.039324  -0.009142   0.000431  -0.001371  -0.000962  -0.000026
    26  C   -0.009142   0.027411   0.003549   0.012324  -0.049081   0.004223
    27  H    0.000431   0.003549   0.030524  -0.000149   0.001144   0.003564
    28  H   -0.001371   0.012324  -0.000149   0.016759   0.000284   0.000993
    29  N   -0.000962  -0.049081   0.001144   0.000284   0.135143   0.024479
    30  C   -0.000026   0.004223   0.003564   0.000993   0.024479  -0.076381
    31  C   -0.001041  -0.004355   0.000726   0.003317   0.015140   0.003373
    32  H   -0.000065  -0.008006   0.000018  -0.000234  -0.022303   0.003429
    33  H    0.000036  -0.003778   0.000155  -0.000061  -0.001180   0.002082
    34  H    0.000002   0.013814   0.000051   0.000025  -0.027313  -0.000500
    35  H    0.000410  -0.007824  -0.000220  -0.000039  -0.019303  -0.002660
    36  H   -0.000020   0.002503  -0.000100  -0.000568  -0.001697  -0.000157
    37  H   -0.000404   0.008651  -0.000060   0.000983  -0.026814   0.001875
              31         32         33         34         35         36
     1  C   -0.000003  -0.000002   0.000001  -0.000002  -0.000001   0.000000
     2  C    0.000000  -0.000001   0.000000   0.000000   0.000000   0.000000
     3  C   -0.000036   0.000014   0.000007  -0.000056  -0.000017  -0.000003
     4  O    0.000000   0.000000   0.000000   0.000000   0.000000   0.000000
     5  C    0.000000   0.000000   0.000000   0.000000   0.000000   0.000000
     6  H    0.000000   0.000000   0.000000   0.000000   0.000000   0.000000
     7  C   -0.000030  -0.000005  -0.000001   0.000019   0.000005  -0.000002
     8  C   -0.000551  -0.000158   0.000042  -0.000042  -0.000020  -0.000052
     9  H   -0.000001   0.000000   0.000000   0.000000   0.000000   0.000000
    10  C    0.000000   0.000009  -0.000001   0.000004   0.000000   0.000000
    11  H    0.000000   0.000000   0.000000   0.000000   0.000000   0.000000
    12  H   -0.000004  -0.000013  -0.000001   0.000013   0.000003   0.000000
    13  C   -0.000995   0.000327   0.000129  -0.000334  -0.000272  -0.000136
    14  O    0.000003   0.000001   0.000000   0.000000  -0.000001   0.000000
    15  H    0.000000   0.000000   0.000000   0.000000   0.000000   0.000000
    16  C    0.000215   0.000478   0.000149   0.000153  -0.000326  -0.000268
    17  H    0.000033   0.000055   0.000032  -0.000112  -0.000044  -0.000006
    18  C    0.012451   0.001732   0.000759  -0.001392  -0.003376   0.001185
    19  H    0.000147   0.000012  -0.000019   0.000019  -0.000029   0.000021
    20  C    0.004121   0.005753   0.002680  -0.003749  -0.003467  -0.000406
    21  C    0.016018  -0.003841  -0.001228   0.000142   0.007432   0.002234
    22  H   -0.000090   0.000035  -0.000122   0.000166   0.000053   0.000038
    23  C    0.003121   0.021737   0.005695   0.000647  -0.010065  -0.003984
    24  C   -0.015505  -0.007378  -0.004977   0.002359   0.020726   0.000575
    25  H   -0.001041  -0.000065   0.000036   0.000002   0.000410  -0.000020
    26  C   -0.004355  -0.008006  -0.003778   0.013814  -0.007824   0.002503
    27  H    0.000726   0.000018   0.000155   0.000051  -0.000220  -0.000100
    28  H    0.003317  -0.000234  -0.000061   0.000025  -0.000039  -0.000568
    29  N    0.015140  -0.022303  -0.001180  -0.027313  -0.019303  -0.001697
    30  C    0.003373   0.003429   0.002082  -0.000500  -0.002660  -0.000157
    31  C   -0.069852  -0.002919  -0.000404   0.002944   0.007188   0.001315
    32  H   -0.002919   0.076572  -0.002231  -0.027819  -0.002261  -0.000789
    33  H   -0.000404  -0.002231   0.026146  -0.004613  -0.000199   0.000342
    34  H    0.002944  -0.027819  -0.004613   0.080937   0.003556   0.001155
    35  H    0.007188  -0.002261  -0.000199   0.003556   0.069402   0.000461
    36  H    0.001315  -0.000789   0.000342   0.001155   0.000461   0.024221
    37  H   -0.001446   0.003660   0.000498  -0.002604  -0.024452  -0.006301
              37
     1  C    0.000001
     2  C    0.000000
     3  C    0.000019
     4  O    0.000000
     5  C    0.000000
     6  H    0.000000
     7  C    0.000000
     8  C    0.000079
     9  H    0.000000
    10  C    0.000000
    11  H    0.000000
    12  H   -0.000002
    13  C    0.000159
    14  O    0.000000
    15  H    0.000000
    16  C    0.000026
    17  H    0.000028
    18  C    0.001672
    19  H    0.000015
    20  C    0.000152
    21  C    0.000193
    22  H   -0.000035
    23  C    0.001069
    24  C    0.001805
    25  H   -0.000404
    26  C    0.008651
    27  H   -0.000060
    28  H    0.000983
    29  N   -0.026814
    30  C    0.001875
    31  C   -0.001446
    32  H    0.003660
    33  H    0.000498
    34  H   -0.002604
    35  H   -0.024452
    36  H   -0.006301
    37  H    0.078053
 Mulliken charges:
               1
     1  C    6.061953
     2  C    5.976408
     3  C    6.062872
     4  O    8.058729
     5  C    6.024858
     6  H    1.026962
     7  C    5.904353
     8  C    6.008116
     9  H    1.007620
    10  C    5.998820
    11  H    1.031518
    12  H    1.021017
    13  C    6.130307
    14  O    8.060275
    15  H    1.027667
    16  C    5.908800
    17  H    1.049274
    18  C    6.111842
    19  H    0.994373
    20  C    5.937389
    21  C    5.934132
    22  H    0.936534
    23  C    6.021036
    24  C    6.036783
    25  H    0.967858
    26  C    5.879531
    27  H    0.982457
    28  H    0.987893
    29  N    6.975870
    30  C    6.031896
    31  C    6.027117
    32  H    0.964192
    33  H    0.980063
    34  H    0.962528
    35  H    0.965339
    36  H    0.980439
    37  H    0.963176
 Sum of Mulliken charges = 142.00000
 Mulliken charges with hydrogens summed into heavy atoms:
               1
     1  C    6.061953
     2  C    7.003370
     3  C    6.062872
     4  O    9.066350
     5  C    7.056377
     7  C    6.925369
     8  C    6.008116
    10  C    7.026487
    13  C    7.179581
    14  O    8.060275
    16  C    6.903173
    18  C    6.111842
    20  C    6.873923
    21  C    6.901991
    23  C    7.003493
    24  C    7.024676
    26  C    5.879531
    29  N    6.975870
    30  C    8.938680
    31  C    8.936071
 Electronic spatial extent (au):  <R**2>=            -81.7941
 Charge=              0.0000 electrons
 Dipole moment (field-independent basis, Debye):
    X=            -12.8602    Y=             -1.1927    Z=              4.8868  Tot=             13.8090
 Quadrupole moment (field-independent basis, Debye-Ang):
   XX=             70.7445   YY=             15.9755   ZZ=             23.2958
   XY=             90.8836   XZ=            -42.0984   YZ=            -35.2532
 Traceless Quadrupole moment (field-independent basis, Debye-Ang):
   XX=             34.0726   YY=            -20.6964   ZZ=            -13.3761
   XY=             90.8836   XZ=            -42.0984   YZ=            -35.2532
 Octapole moment (field-independent basis, Debye-Ang**2):
  XXX=           -647.2509  YYY=           -169.5538  ZZZ=            131.6458  XYY=           -671.6550
  XXY=           -532.2315  XXZ=            301.5172  XZZ=           -195.4184  YZZ=           -158.9683
  YYZ=            260.8062  XYZ=            291.0487
 Hexadecapole moment (field-independent basis, Debye-Ang**3):
 XXXX=           4964.3812 YYYY=           1675.8359 ZZZZ=            722.2956 XXXY=           4809.3638
 XXXZ=          -2364.8939 YYYX=           5166.9759 YYYZ=          -1986.1418 ZZZX=           -970.1062
 ZZZY=           -871.9463 XXYY=           4142.4586 XXZZ=           1370.8505 YYZZ=           1118.9539
 XXYZ=          -2140.8673 YYXZ=          -2097.9553 ZZXY=           1315.8119
 N-N= 1.358388145374D+03 E-N= 2.275787446387D-01  KE= 6.439753496992D-03
 Leave Link  601 at Thu Aug  9 20:01:47 2018, MaxMem=  1879048192 cpu:         0.7
 (Enter /share/apps/gaussian/g09_D01/g09/l9999.exe)
 1\1\GINC-NXN34\SP\RwB97XD TD-FC\6-311++G(d,p)\C17H17N1O2\BTX008\09-Aug
 -2018\0\\#p wb97xd 6-311++G** td=(nstates=1) nosymm Pop=NTO Density=(T
 ransition=1)\\Title\\0,1\C,0,-7.196442,-6.840499,4.505462\C,0,-8.44930
 9,-7.422935,4.256097\C,0,-6.116034,-7.043692,3.594826\O,0,-7.039043,-6
 .086733,5.611203\C,0,-8.641938,-8.219449,3.137063\H,0,-9.257309,-7.215
 866,4.95777\C,0,-6.35306,-7.866116,2.472996\C,0,-4.824246,-6.380928,3.
 862622\H,0,-6.04768,-5.756085,5.530263\C,0,-7.588796,-8.45099,2.241936
 \H,0,-9.619575,-8.665408,2.947296\H,0,-5.552651,-8.063173,1.761606\C,0
 ,-3.704178,-6.554956,2.976342\O,0,-4.72679,-5.640966,4.908668\H,0,-7.7
 37618,-9.088866,1.371175\C,0,-2.5213,-5.888071,3.164452\H,0,-3.810174,
 -7.242315,2.139497\C,0,-1.320601,-6.014497,2.399224\H,0,-2.47843,-5.19
 3048,4.010013\C,0,-1.146607,-6.949476,1.348586\C,0,-0.202155,-5.210226
 ,2.725294\H,0,-1.971105,-7.602804,1.060473\C,0,0.045604,-7.072357,0.67
 3042\C,0,0.99793,-5.310047,2.055673\H,0,-0.299533,-4.492713,3.54133\C,
 0,1.163557,-6.247449,0.999056\H,0,0.121292,-7.809712,-0.121883\H,0,1.8
 26104,-4.673106,2.356233\N,0,2.337452,-6.351839,0.324578\C,0,2.482783,
 -7.333867,-0.738608\C,0,3.451039,-5.467412,0.638287\H,0,2.290163,-8.35
 1594,-0.365237\H,0,3.502452,-7.293717,-1.132587\H,0,1.783202,-7.13262,
 -1.563458\H,0,3.150286,-4.412434,0.549647\H,0,4.268925,-5.658559,-0.06
 3239\H,0,3.818959,-5.636076,1.662178\\Version=ES64L-G09RevD.01\HF=-863
 .1625464\RMSD=8.356e-09\PG=C01 [X(C17H17N1O2)]\\@


 WHAT, THEN, IS TIME?  IF NO ONE ASKS ME, I KNOW WHAT IT IS.
 IF I WISH TO EXPLAIN WHAT IT IS TO HIM WHO ASKS ME, I DO NOT KNOW.
                                   -- ST. AUGUSTINE (FIFTH CENTURY)
 Job cpu time:       0 days  1 hours 34 minutes 24.2 seconds.
 File lengths (MBytes):  RWF=    296 Int=      0 D2E=      0 Chk=     32 Scr=      1
 Normal termination of Gaussian 09 at Thu Aug  9 20:01:48 2018.
